<?xml version="1.0" encoding="ISO-8859-1"?>
<modeling>
 <generator>
  <i name="program" type="string">vasp </i>
  <i name="version" type="string">5.4.4.18Apr17-6-g9f103f2a35  </i>
  <i name="subversion" type="string">(build Apr 30 2017 20:10:35) complex            parallel </i>
  <i name="platform" type="string">LinuxIFC </i>
  <i name="date" type="string">2017 12 12 </i>
  <i name="time" type="string">15:06:59 </i>
 </generator>
 <incar>
  <i type="string" name="SYSTEM"> LTO</i>
  <i type="int" name="ISTART">     1</i>
  <i type="string" name="PREC">accurate  ! calculation level (changes</i>
  <i type="int" name="IALGO">    38</i>
  <i type="logical" name="ADDGRID"> T  </i>
  <i type="int" name="ISPIN">     2</i>
  <i type="int" name="IBRION">     2</i>
  <i name="EDIFF">      0.00000100</i>
  <i name="EDIFFG">     -0.01000000</i>
  <i type="int" name="NSW">     0</i>
  <i type="int" name="ISIF">     4</i>
  <i type="int" name="ISYM">     0</i>
  <i name="ENCUT">    520.00000000</i>
  <i type="int" name="NEDOS">  3001</i>
  <i name="NUPDOWN">     60.00000000</i>
  <i type="logical" name="LREAL"> F  </i>
  <i type="int" name="ISMEAR">     0</i>
  <i name="SIGMA">      0.01000000</i>
  <i type="int" name="NWRITE">     2</i>
  <i type="int" name="LMAXMIX">     4</i>
  <i type="int" name="LORBIT">    11</i>
  <i type="logical" name="LOPTICS"> T  </i>
  <i type="logical" name="LASPH"> T  </i>
  <v type="int" name="KPOINT_BSE">    -1     0     0     0</v>
  <i type="string" name="GGA"> PS</i>
  <i type="logical" name="LDAU"> T  </i>
  <v type="int" name="LDAUTYPE">     2</v>
  <v type="int" name="LDAUL">     2    -1    -1</v>
  <v name="LDAUU">      5.30000000      0.00000000      0.00000000</v>
  <v name="LDAUJ">      0.00000000      0.00000000      0.00000000</v>
  <i type="logical" name="LASPH"> T  </i>
 </incar>
 <structure name="primitive_cell" >
  <crystal>
   <varray name="basis" >
    <v>       7.64737116       0.06111026      -0.03409147 </v>
    <v>      -0.15953263      12.51424662      -0.00199117 </v>
    <v>      -0.01832147       0.01017033       7.53658552 </v>
   </varray>
   <i name="volume">    721.32530946 </i>
   <varray name="rec_basis" >
    <v>       0.13075198       0.00166689       0.00031561 </v>
    <v>      -0.00063898       0.07990076      -0.00010938 </v>
    <v>       0.00059128       0.00002865       0.13268748 </v>
   </varray>
  </crystal>
  <varray name="positions" >
   <v>       0.00007698      -0.49902576       0.00189610 </v>
   <v>       0.00923913       0.47000109      -0.24744944 </v>
   <v>      -0.00909465      -0.46805379       0.25125516 </v>
   <v>       0.19414555      -0.40138259      -0.02492357 </v>
   <v>      -0.19399991       0.40332607       0.02875025 </v>
   <v>      -0.17312852      -0.38921533      -0.04413791 </v>
   <v>       0.17327300       0.39115751       0.04794653 </v>
   <v>       0.01303343      -0.20981769       0.00942065 </v>
   <v>      -0.01289981       0.21175342      -0.00548930 </v>
   <v>       0.25723781      -0.25370456       0.00025027 </v>
   <v>      -0.25710249       0.25564902       0.00358724 </v>
   <v>      -0.23801685      -0.24330312       0.00207935 </v>
   <v>       0.23815176       0.24524455       0.00173457 </v>
   <v>       0.00007105      -0.49902697      -0.49809521 </v>
   <v>      -0.24431804       0.27590921      -0.25254033 </v>
   <v>       0.24454189      -0.27397323       0.25638305 </v>
   <v>       0.21769824       0.26521170      -0.25101785 </v>
   <v>      -0.21767896      -0.26329452       0.25484706 </v>
   <v>       0.08776433       0.35723680       0.45660614 </v>
   <v>      -0.08761979      -0.35528273      -0.45281404 </v>
   <v>       0.22191189      -0.42620212      -0.48315706 </v>
   <v>      -0.22176448       0.42815038       0.48698502 </v>
   <v>       0.23720517      -0.24471294      -0.25793156 </v>
   <v>      -0.23714596       0.24666742       0.26177011 </v>
   <v>      -0.22826971      -0.20727766      -0.24606705 </v>
   <v>       0.22850258       0.20923813       0.24988714 </v>
   <v>       0.48973167       0.28515483       0.01061302 </v>
   <v>      -0.48959472      -0.28319838      -0.00685945 </v>
   <v>       0.31157731      -0.27887717      -0.49596986 </v>
   <v>      -0.31145117       0.28082745       0.49983839 </v>
   <v>      -0.26305347      -0.24722858      -0.49318260 </v>
   <v>       0.26317614       0.24916997       0.49702320 </v>
   <v>       0.32078687      -0.10641569       0.02819687 </v>
   <v>      -0.32065215       0.10836687      -0.02436083 </v>
   <v>      -0.46489051      -0.31929505      -0.47768697 </v>
   <v>       0.46506104       0.32125836       0.48165815 </v>
   <v>       0.31424402       0.10128848      -0.04598571 </v>
   <v>      -0.31409845      -0.09934395       0.04981013 </v>
   <v>      -0.34339882       0.12323887      -0.47212000 </v>
   <v>       0.34352743      -0.12129108       0.47597048 </v>
   <v>       0.30505829       0.09828061      -0.45912462 </v>
   <v>      -0.30492020      -0.09633685       0.46294851 </v>
   <v>      -0.48596774      -0.03037844      -0.24787515 </v>
   <v>       0.48611687       0.03231592       0.25170520 </v>
   <v>      -0.49992698       0.00096764       0.00191598 </v>
   <v>      -0.49993723       0.00097379      -0.49808630 </v>
  </varray>
 </structure>
 <varray name="primitive_index" >
  <v type="int" >        1 </v>
  <v type="int" >       34 </v>
  <v type="int" >       33 </v>
  <v type="int" >       23 </v>
  <v type="int" >       24 </v>
  <v type="int" >       20 </v>
  <v type="int" >       19 </v>
  <v type="int" >       15 </v>
  <v type="int" >       16 </v>
  <v type="int" >       11 </v>
  <v type="int" >       12 </v>
  <v type="int" >        6 </v>
  <v type="int" >        5 </v>
  <v type="int" >        2 </v>
  <v type="int" >       44 </v>
  <v type="int" >       43 </v>
  <v type="int" >       42 </v>
  <v type="int" >       41 </v>
  <v type="int" >       13 </v>
  <v type="int" >       14 </v>
  <v type="int" >       22 </v>
  <v type="int" >       21 </v>
  <v type="int" >       40 </v>
  <v type="int" >       39 </v>
  <v type="int" >       38 </v>
  <v type="int" >       37 </v>
  <v type="int" >       17 </v>
  <v type="int" >       18 </v>
  <v type="int" >       10 </v>
  <v type="int" >        9 </v>
  <v type="int" >        7 </v>
  <v type="int" >        8 </v>
  <v type="int" >       32 </v>
  <v type="int" >       31 </v>
  <v type="int" >       45 </v>
  <v type="int" >       46 </v>
  <v type="int" >       26 </v>
  <v type="int" >       25 </v>
  <v type="int" >       30 </v>
  <v type="int" >       29 </v>
  <v type="int" >       27 </v>
  <v type="int" >       28 </v>
  <v type="int" >       36 </v>
  <v type="int" >       35 </v>
  <v type="int" >        3 </v>
  <v type="int" >        4 </v>
 </varray>
 <kpoints>
  <generation param="Monkhorst-Pack">
   <v type="int" name="divisions">       4        2        4 </v>
   <v name="usershift">      0.00000000       0.00000000       0.00000000 </v>
   <v name="genvec1">      0.25000000       0.00000000      -0.00000000 </v>
   <v name="genvec2">      0.00000000       0.50000000       0.00000000 </v>
   <v name="genvec3">      0.00000000       0.00000000       0.25000000 </v>
   <v name="shift">      0.50000000       0.50000000       0.50000000 </v>
  </generation>
  <varray name="kpointlist" >
   <v>       0.12500000       0.25000000       0.12500000 </v>
   <v>       0.37500000       0.25000000       0.12500000 </v>
   <v>      -0.37500000       0.25000000       0.12500000 </v>
   <v>      -0.12500000       0.25000000       0.12500000 </v>
   <v>       0.12500000      -0.25000000       0.12500000 </v>
   <v>       0.37500000      -0.25000000       0.12500000 </v>
   <v>      -0.37500000      -0.25000000       0.12500000 </v>
   <v>      -0.12500000      -0.25000000       0.12500000 </v>
   <v>       0.12500000       0.25000000       0.37500000 </v>
   <v>       0.37500000       0.25000000       0.37500000 </v>
   <v>      -0.37500000       0.25000000       0.37500000 </v>
   <v>      -0.12500000       0.25000000       0.37500000 </v>
   <v>       0.12500000      -0.25000000       0.37500000 </v>
   <v>       0.37500000      -0.25000000       0.37500000 </v>
   <v>      -0.37500000      -0.25000000       0.37500000 </v>
   <v>      -0.12500000      -0.25000000       0.37500000 </v>
  </varray>
  <varray name="weights" >
   <v>       0.06250000 </v>
   <v>       0.06250000 </v>
   <v>       0.06250000 </v>
   <v>       0.06250000 </v>
   <v>       0.06250000 </v>
   <v>       0.06250000 </v>
   <v>       0.06250000 </v>
   <v>       0.06250000 </v>
   <v>       0.06250000 </v>
   <v>       0.06250000 </v>
   <v>       0.06250000 </v>
   <v>       0.06250000 </v>
   <v>       0.06250000 </v>
   <v>       0.06250000 </v>
   <v>       0.06250000 </v>
   <v>       0.06250000 </v>
  </varray>
 </kpoints>
 <parameters>
  <separator name="general" >
   <i type="string" name="SYSTEM">LTO</i>
   <i type="logical" name="LCOMPAT"> F  </i>
  </separator>
  <separator name="electronic" >
   <i type="string" name="PREC">accura</i>
   <i name="ENMAX">    520.00000000</i>
   <i name="ENAUG">    613.61400000</i>
   <i name="EDIFF">      0.00000100</i>
   <i type="int" name="IALGO">    38</i>
   <i type="int" name="IWAVPR">    10</i>
   <i type="int" name="NBANDS">   272</i>
   <i name="NELECT">    404.00000000</i>
   <i type="int" name="TURBO">     0</i>
   <i type="int" name="IRESTART">     0</i>
   <i type="int" name="NREBOOT">     0</i>
   <i type="int" name="NMIN">     0</i>
   <i name="EREF">      0.00000000</i>
   <separator name="electronic smearing" >
    <i type="int" name="ISMEAR">     0</i>
    <i name="SIGMA">      0.01000000</i>
    <i name="KSPACING">      0.50000000</i>
    <i type="logical" name="KGAMMA"> T  </i>
   </separator>
   <separator name="electronic projectors" >
    <i type="logical" name="LREAL"> F  </i>
    <v name="ROPT">      0.00000000      0.00000000      0.00000000</v>
    <i type="int" name="LMAXPAW">  -100</i>
    <i type="int" name="LMAXMIX">     4</i>
    <i type="logical" name="NLSPLINE"> F  </i>
   </separator>
   <separator name="electronic startup" >
    <i type="int" name="ISTART">     1</i>
    <i type="int" name="ICHARG">     0</i>
    <i type="int" name="INIWAV">     1</i>
   </separator>
   <separator name="electronic spin" >
    <i type="int" name="ISPIN">     2</i>
    <i type="logical" name="LNONCOLLINEAR"> F  </i>
    <v name="MAGMOM">      1.30434783      1.30434783      1.30434783      1.30434783      1.30434783      1.30434783      1.30434783      1.30434783      1.30434783      1.30434783      1.30434783      1.30434783      1.30434783      1.30434783      1.30434783      1.30434783      1.30434783      1.30434783      1.30434783      1.30434783
      1.30434783      1.30434783      1.30434783      1.30434783      1.30434783      1.30434783      1.30434783      1.30434783      1.30434783      1.30434783      1.30434783      1.30434783      1.30434783      1.30434783      1.30434783      1.30434783      1.30434783      1.30434783      1.30434783      1.30434783
      1.30434783      1.30434783      1.30434783      1.30434783      1.30434783      1.30434783</v>
    <i name="NUPDOWN">     60.00000000</i>
    <i type="logical" name="LSORBIT"> F  </i>
    <v name="SAXIS">      0.00000000      0.00000000      1.00000000</v>
    <i type="logical" name="LSPIRAL"> F  </i>
    <v name="QSPIRAL">      0.00000000      0.00000000      0.00000000</v>
    <i type="logical" name="LZEROZ"> F  </i>
   </separator>
   <separator name="electronic exchange-correlation" >
    <i type="logical" name="LASPH"> T  </i>
    <i type="logical" name="LMETAGGA"> F  </i>
   </separator>
   <separator name="electronic convergence" >
    <i type="int" name="NELM">    60</i>
    <i type="int" name="NELMDL">     0</i>
    <i type="int" name="NELMIN">     2</i>
    <i name="ENINI">    520.00000000</i>
    <separator name="electronic convergence detail" >
     <i type="logical" name="LDIAG"> T  </i>
     <i type="logical" name="LSUBROT"> F  </i>
     <i name="WEIMIN">      0.00000000</i>
     <i name="EBREAK">      0.00000000</i>
     <i name="DEPER">      0.30000000</i>
     <i type="int" name="NRMM">     4</i>
     <i name="TIME">      0.40000000</i>
    </separator>
   </separator>
   <separator name="electronic mixer" >
    <i name="AMIX">      0.40000000</i>
    <i name="BMIX">      1.00000000</i>
    <i name="AMIN">      0.10000000</i>
    <i name="AMIX_MAG">      1.60000000</i>
    <i name="BMIX_MAG">      1.00000000</i>
    <separator name="electronic mixer details" >
     <i type="int" name="IMIX">     4</i>
     <i type="logical" name="MIXFIRST"> F  </i>
     <i type="int" name="MAXMIX">   -45</i>
     <i name="WC">    100.00000000</i>
     <i type="int" name="INIMIX">     1</i>
     <i type="int" name="MIXPRE">     1</i>
     <i type="int" name="MREMOVE">     5</i>
    </separator>
   </separator>
   <separator name="electronic dipolcorrection" >
    <i type="logical" name="LDIPOL"> F  </i>
    <i type="logical" name="LMONO"> F  </i>
    <i type="int" name="IDIPOL">     0</i>
    <i name="EPSILON">      1.00000000</i>
    <v name="DIPOL">   -100.00000000   -100.00000000   -100.00000000</v>
    <i name="EFIELD">      0.00000000</i>
   </separator>
  </separator>
  <separator name="grids" >
   <i type="int" name="NGX">    60</i>
   <i type="int" name="NGY">    96</i>
   <i type="int" name="NGZ">    56</i>
   <i type="int" name="NGXF">   120</i>
   <i type="int" name="NGYF">   192</i>
   <i type="int" name="NGZF">   112</i>
   <i type="logical" name="ADDGRID"> T  </i>
  </separator>
  <separator name="ionic" >
   <i type="int" name="NSW">     0</i>
   <i type="int" name="IBRION">    -1</i>
   <i type="int" name="MDALGO">     0</i>
   <i type="int" name="ISIF">     4</i>
   <i name="PSTRESS">      0.00000000</i>
   <i name="EDIFFG">     -0.01000000</i>
   <i type="int" name="NFREE">     1</i>
   <i name="POTIM">      0.50000000</i>
   <i name="SMASS">     -3.00000000</i>
   <i name="SCALEE">      1.00000000</i>
  </separator>
  <separator name="ionic md" >
   <i name="TEBEG">      0.00010000</i>
   <i name="TEEND">      0.00010000</i>
   <i type="int" name="NBLOCK">     1</i>
   <i type="int" name="KBLOCK">     1</i>
   <i type="int" name="NPACO">   256</i>
   <i name="APACO">     16.00000000</i>
  </separator>
  <separator name="symmetry" >
   <i type="int" name="ISYM">     0</i>
   <i name="SYMPREC">      0.00001000</i>
  </separator>
  <separator name="dos" >
   <i type="int" name="LORBIT">    11</i>
   <v name="RWIGS">     -1.00000000     -1.00000000     -1.00000000</v>
   <i type="int" name="NEDOS">  3001</i>
   <i name="EMIN">     10.00000000</i>
   <i name="EMAX">    -10.00000000</i>
   <i name="EFERMI">      0.00000000</i>
  </separator>
  <separator name="writing" >
   <i type="int" name="NWRITE">     2</i>
   <i type="logical" name="LWAVE"> T  </i>
   <i type="logical" name="LDOWNSAMPLE"> F  </i>
   <i type="logical" name="LCHARG"> T  </i>
   <i type="logical" name="LPARD"> F  </i>
   <i type="logical" name="LVTOT"> F  </i>
   <i type="logical" name="LVHAR"> F  </i>
   <i type="logical" name="LELF"> F  </i>
   <i type="logical" name="LOPTICS"> T  </i>
   <v name="STM">      0.00000000      0.00000000      0.00000000      0.00000000      0.00000000      0.00000000      0.00000000</v>
  </separator>
  <separator name="performance" >
   <i type="int" name="NPAR">    16</i>
   <i type="int" name="NSIM">     4</i>
   <i type="int" name="NBLK">    -1</i>
   <i type="logical" name="LPLANE"> T  </i>
   <i type="logical" name="LSCALAPACK"> T  </i>
   <i type="logical" name="LSCAAWARE"> T  </i>
   <i type="logical" name="LSCALU"> F  </i>
   <i type="logical" name="LASYNC"> F  </i>
   <i type="logical" name="LORBITALREAL"> F  </i>
  </separator>
  <separator name="miscellaneous" >
   <i type="int" name="IDIOT">     3</i>
   <i type="int" name="ISPECIAL">     0</i>
   <i type="logical" name="LMUSIC"> F  </i>
   <v name="POMASS">     55.84700000     18.99800000     16.00000000</v>
   <v name="DARWINR">      0.00000000      0.00000000      0.00000000</v>
   <v name="DARWINV">      1.00000000      1.00000000      1.00000000</v>
   <i type="logical" name="LCORR"> T  </i>
  </separator>
  <i type="logical" name="GGA_COMPAT"> T  </i>
  <i type="logical" name="LBERRY"> F  </i>
  <i type="int" name="ICORELEVEL">     0</i>
  <i type="logical" name="LDAU"> T  </i>
  <v type="int" name="LDAUTYPE">     2</v>
  <v type="int" name="LDAUL">     2</v>
  <v name="LDAUU">      5.30000000</v>
  <v name="LDAUJ">      0.00000000</v>
  <i type="int" name="LDAUPRINT">     0</i>
  <i type="int" name="I_CONSTRAINED_M">     0</i>
  <separator name="electronic exchange-correlation" >
   <i type="string" name="GGA">PS</i>
   <i type="int" name="VOSKOWN">     0</i>
   <i type="logical" name="LHFCALC"> F  </i>
   <i type="string" name="PRECFOCK"></i>
   <i type="logical" name="LSYMGRAD"> F  </i>
   <i type="logical" name="LHFONE"> F  </i>
   <i type="logical" name="LRHFCALC"> F  </i>
   <i type="logical" name="LTHOMAS"> F  </i>
   <i type="logical" name="LMODELHF"> F  </i>
   <i name="ENCUT4O">     -1.00000000</i>
   <i type="int" name="EXXOEP">     0</i>
   <i type="int" name="FOURORBIT">     0</i>
   <i name="AEXX">      0.00000000</i>
   <i name="HFALPHA">      0.00000000</i>
   <i name="MCALPHA">      0.00000000</i>
   <i name="ALDAX">      1.00000000</i>
   <i name="AGGAX">      1.00000000</i>
   <i name="ALDAC">      1.00000000</i>
   <i name="AGGAC">      1.00000000</i>
   <i type="int" name="NKREDX">     1</i>
   <i type="int" name="NKREDY">     1</i>
   <i type="int" name="NKREDZ">     1</i>
   <i type="logical" name="SHIFTRED"> F  </i>
   <i type="logical" name="ODDONLY"> F  </i>
   <i type="logical" name="EVENONLY"> F  </i>
   <i type="int" name="LMAXFOCK">     0</i>
   <i type="int" name="NMAXFOCKAE">     0</i>
   <i type="logical" name="LFOCKAEDFT"> F  </i>
   <i name="HFSCREEN">      0.00000000</i>
   <i name="HFSCREENC">      0.00000000</i>
   <i type="int" name="NBANDSGWLOW">     0</i>
  </separator>
  <separator name="vdW DFT" >
   <i type="logical" name="LUSE_VDW"> F  </i>
   <i name="Zab_VDW">     -0.84910000</i>
   <i name="PARAM1">      0.12340000</i>
   <i name="PARAM2">      1.00000000</i>
   <i name="PARAM3">      0.00000000</i>
  </separator>
  <separator name="model GW" >
   <i name="MODEL_EPS0">      9.40859099</i>
   <i name="MODEL_ALPHA">      1.00000000</i>
  </separator>
  <separator name="linear response parameters" >
   <i type="logical" name="LEPSILON"> F  </i>
   <i type="logical" name="LRPA"> F  </i>
   <i type="logical" name="LNABLA"> F  </i>
   <i type="logical" name="LVEL"> F  </i>
   <i type="int" name="KINTER">     0</i>
   <i name="CSHIFT">      0.10000000</i>
   <i name="OMEGAMAX">     -1.00000000</i>
   <i name="DEG_THRESHOLD">      0.00200000</i>
   <i name="RTIME">     -0.10000000</i>
   <i name="WPLASMAI">      0.00000000</i>
   <v name="DFIELD">      0.00000000      0.00000000      0.00000000</v>
   <v name="WPLASMA">      0.00000000      0.00000000      0.00000000      0.00000000      0.00000000      0.00000000      0.00000000      0.00000000      0.00000000</v>
  </separator>
  <separator name="orbital magnetization" >
   <i type="logical" name="NUCIND"> F  </i>
   <v name="MAGPOS">      0.00000000      0.00000000      0.00000000</v>
   <i type="logical" name="LNICSALL"> T  </i>
   <i type="logical" name="ORBITALMAG"> F  </i>
   <i type="logical" name="LMAGBLOCH"> F  </i>
   <i type="logical" name="LCHIMAG"> F  </i>
   <i type="logical" name="LGAUGE"> T  </i>
   <i type="int" name="MAGATOM">     0</i>
   <v name="MAGDIPOL">      0.00000000      0.00000000      0.00000000</v>
   <v name="AVECCONST">      0.00000000      0.00000000      0.00000000</v>
  </separator>
  <separator name="response functions" >
   <i type="logical" name="LADDER"> F  </i>
   <i type="logical" name="LRPAFORCE"> F  </i>
   <i type="logical" name="LFXC"> F  </i>
   <i type="logical" name="LHARTREE"> T  </i>
   <i type="int" name="IBSE">     0</i>
   <v type="int" name="KPOINT">    -1     0     0     0</v>
   <i type="logical" name="LTCTE"> F  </i>
   <i type="logical" name="LTETE"> F  </i>
   <i type="logical" name="LTRIPLET"> F  </i>
   <i type="logical" name="LFXCEPS"> F  </i>
   <i type="logical" name="LFXHEG"> F  </i>
   <i type="int" name="NATURALO">     2</i>
   <i type="logical" name="L2ORDER"> F  </i>
   <i type="logical" name="LMP2LT"> F  </i>
   <i type="logical" name="LUSEW"> F  </i>
   <i name="ENCUTGW">     -2.00000000</i>
   <i name="ENCUTGWSOFT">     -2.00000000</i>
   <i name="ENCUTLF">     -1.00000000</i>
   <i type="int" name="LMAXMP2">    -1</i>
   <i name="SCISSOR">      0.00000000</i>
   <i type="int" name="NOMEGA">     0</i>
   <i type="int" name="NOMEGAR">     0</i>
   <i type="int" name="NBANDSGW">    -1</i>
   <i type="int" name="NBANDSO">    -1</i>
   <i type="int" name="NBANDSV">    -1</i>
   <i type="int" name="NELM">     1</i>
   <i type="int" name="NELMHF">     1</i>
   <i type="int" name="DIM">     3</i>
   <i type="int" name="ANTIRES">     0</i>
   <i name="OMEGAMAX">    -30.00000000</i>
   <i name="OMEGAMIN">    -30.00000000</i>
   <i name="OMEGATL">   -200.00000000</i>
   <i type="int" name="OMEGAGRID">   140</i>
   <i name="CSHIFT">     -0.10000000</i>
   <i type="logical" name="SELFENERGY"> F  </i>
   <i type="logical" name="LSPECTRAL"> F  </i>
   <i type="logical" name="LSPECTRALGW"> F  </i>
   <i type="logical" name="LSINGLES"> F  </i>
   <i type="logical" name="LFERMIGW"> F  </i>
   <i type="logical" name="ODDONLYGW"> F  </i>
   <i type="logical" name="EVENONLYGW"> F  </i>
   <i type="int" name="NKREDLFX">     1</i>
   <i type="int" name="NKREDLFY">     1</i>
   <i type="int" name="NKREDLFZ">     1</i>
   <i type="int" name="MAXMEM">  2800</i>
   <i type="int" name="TELESCOPE">     0</i>
   <i type="int" name="TAUPAR">     1</i>
   <i type="int" name="OMEGAPAR">    -1</i>
   <i name="LAMBDA">      1.00000000</i>
  </separator>
  <separator name="External order field" >
   <i name="OFIELD_KAPPA">      0.00000000</i>
   <v name="OFIELD_K">      0.00000000      0.00000000      0.00000000</v>
   <i name="OFIELD_Q6_NEAR">      0.00000000</i>
   <i name="OFIELD_Q6_FAR">      0.00000000</i>
   <i name="OFIELD_A">      0.00000000</i>
  </separator>
 </parameters>
 <atominfo>
  <atoms>      46 </atoms>
  <types>       3 </types>
  <array name="atoms" >
   <dimension dim="1">ion</dimension>
   <field type="string">element</field>
   <field type="int">atomtype</field>
   <set>
    <rc><c>Fe</c><c>   1</c></rc>
    <rc><c>Fe</c><c>   1</c></rc>
    <rc><c>Fe</c><c>   1</c></rc>
    <rc><c>Fe</c><c>   1</c></rc>
    <rc><c>Fe</c><c>   1</c></rc>
    <rc><c>Fe</c><c>   1</c></rc>
    <rc><c>Fe</c><c>   1</c></rc>
    <rc><c>Fe</c><c>   1</c></rc>
    <rc><c>Fe</c><c>   1</c></rc>
    <rc><c>Fe</c><c>   1</c></rc>
    <rc><c>Fe</c><c>   1</c></rc>
    <rc><c>Fe</c><c>   1</c></rc>
    <rc><c>F </c><c>   2</c></rc>
    <rc><c>F </c><c>   2</c></rc>
    <rc><c>F </c><c>   2</c></rc>
    <rc><c>F </c><c>   2</c></rc>
    <rc><c>F </c><c>   2</c></rc>
    <rc><c>F </c><c>   2</c></rc>
    <rc><c>F </c><c>   2</c></rc>
    <rc><c>F </c><c>   2</c></rc>
    <rc><c>F </c><c>   2</c></rc>
    <rc><c>F </c><c>   2</c></rc>
    <rc><c>F </c><c>   2</c></rc>
    <rc><c>F </c><c>   2</c></rc>
    <rc><c>F </c><c>   2</c></rc>
    <rc><c>F </c><c>   2</c></rc>
    <rc><c>F </c><c>   2</c></rc>
    <rc><c>F </c><c>   2</c></rc>
    <rc><c>F </c><c>   2</c></rc>
    <rc><c>F </c><c>   2</c></rc>
    <rc><c>F </c><c>   2</c></rc>
    <rc><c>F </c><c>   2</c></rc>
    <rc><c>F </c><c>   2</c></rc>
    <rc><c>F </c><c>   2</c></rc>
    <rc><c>F </c><c>   2</c></rc>
    <rc><c>F </c><c>   2</c></rc>
    <rc><c>F </c><c>   2</c></rc>
    <rc><c>F </c><c>   2</c></rc>
    <rc><c>F </c><c>   2</c></rc>
    <rc><c>F </c><c>   2</c></rc>
    <rc><c>F </c><c>   2</c></rc>
    <rc><c>F </c><c>   2</c></rc>
    <rc><c>F </c><c>   2</c></rc>
    <rc><c>F </c><c>   2</c></rc>
    <rc><c>O </c><c>   3</c></rc>
    <rc><c>O </c><c>   3</c></rc>
   </set>
  </array>
  <array name="atomtypes" >
   <dimension dim="1">type</dimension>
   <field type="int">atomspertype</field>
   <field type="string">element</field>
   <field>mass</field>
   <field>valence</field>
   <field type="string">pseudopotential</field>
   <set>
    <rc><c>  12</c><c>Fe</c><c>     55.84700000</c><c>     14.00000000</c><c>  PAW_PBE Fe_pv 02Aug2007               </c></rc>
    <rc><c>  32</c><c>F </c><c>     18.99800000</c><c>      7.00000000</c><c>  PAW_PBE F 08Apr2002                   </c></rc>
    <rc><c>   2</c><c>O </c><c>     16.00000000</c><c>      6.00000000</c><c>  PAW_PBE O 08Apr2002                   </c></rc>
   </set>
  </array>
 </atominfo>
 <calculation>
  <dielectricfunction>
   <imag>
    <array>
     <dimension dim="1">gridpoints</dimension>
     <field>energy</field>
     <field>xx</field>
     <field>yy</field>
     <field>zz</field>
     <field>xy</field>
     <field>yz</field>
     <field>zx</field>
     <set>
      <r>     0.0000     0.0000     0.0000     0.0000     0.0000     0.0000     0.0000 </r>
      <r>     0.0286     0.0004     0.0002     0.0002     0.0000    -0.0000     0.0000 </r>
      <r>     0.0572     0.0008     0.0003     0.0003     0.0001    -0.0000     0.0000 </r>
      <r>     0.0858     0.0012     0.0005     0.0005     0.0001    -0.0000     0.0000 </r>
      <r>     0.1144     0.0016     0.0007     0.0007     0.0001    -0.0000     0.0000 </r>
      <r>     0.1430     0.0020     0.0009     0.0009     0.0002    -0.0000     0.0000 </r>
      <r>     0.1716     0.0024     0.0010     0.0010     0.0002    -0.0000     0.0000 </r>
      <r>     0.2002     0.0028     0.0012     0.0012     0.0002    -0.0000     0.0000 </r>
      <r>     0.2288     0.0032     0.0014     0.0014     0.0003    -0.0000     0.0000 </r>
      <r>     0.2574     0.0036     0.0016     0.0015     0.0003    -0.0000     0.0000 </r>
      <r>     0.2859     0.0040     0.0017     0.0017     0.0003    -0.0000     0.0000 </r>
      <r>     0.3145     0.0045     0.0019     0.0019     0.0004    -0.0000     0.0000 </r>
      <r>     0.3431     0.0049     0.0021     0.0021     0.0004    -0.0000     0.0000 </r>
      <r>     0.3717     0.0053     0.0023     0.0022     0.0004    -0.0000     0.0000 </r>
      <r>     0.4003     0.0057     0.0024     0.0024     0.0005    -0.0000     0.0000 </r>
      <r>     0.4289     0.0062     0.0026     0.0026     0.0005    -0.0000     0.0000 </r>
      <r>     0.4575     0.0066     0.0028     0.0028     0.0005    -0.0000     0.0000 </r>
      <r>     0.4861     0.0071     0.0030     0.0030     0.0006    -0.0000     0.0000 </r>
      <r>     0.5147     0.0075     0.0032     0.0032     0.0006    -0.0000     0.0000 </r>
      <r>     0.5433     0.0080     0.0034     0.0033     0.0006    -0.0000     0.0000 </r>
      <r>     0.5719     0.0084     0.0035     0.0035     0.0007    -0.0000     0.0000 </r>
      <r>     0.6005     0.0089     0.0037     0.0037     0.0007    -0.0000     0.0000 </r>
      <r>     0.6291     0.0094     0.0039     0.0039     0.0007    -0.0000    -0.0000 </r>
      <r>     0.6577     0.0099     0.0041     0.0041     0.0008    -0.0000    -0.0000 </r>
      <r>     0.6863     0.0104     0.0043     0.0043     0.0008    -0.0000    -0.0000 </r>
      <r>     0.7149     0.0109     0.0045     0.0045     0.0009    -0.0000    -0.0000 </r>
      <r>     0.7435     0.0114     0.0047     0.0047     0.0009    -0.0000    -0.0000 </r>
      <r>     0.7721     0.0119     0.0049     0.0049     0.0010    -0.0000    -0.0000 </r>
      <r>     0.8007     0.0125     0.0051     0.0051     0.0010    -0.0000    -0.0000 </r>
      <r>     0.8293     0.0130     0.0053     0.0053     0.0011    -0.0000    -0.0000 </r>
      <r>     0.8578     0.0136     0.0055     0.0055     0.0011    -0.0000    -0.0000 </r>
      <r>     0.8864     0.0142     0.0057     0.0057     0.0011    -0.0000    -0.0000 </r>
      <r>     0.9150     0.0148     0.0059     0.0059     0.0012    -0.0000    -0.0000 </r>
      <r>     0.9436     0.0154     0.0062     0.0062     0.0013    -0.0000    -0.0000 </r>
      <r>     0.9722     0.0160     0.0064     0.0064     0.0013    -0.0000    -0.0000 </r>
      <r>     1.0008     0.0166     0.0066     0.0066     0.0014    -0.0000    -0.0000 </r>
      <r>     1.0294     0.0173     0.0068     0.0068     0.0014    -0.0000    -0.0000 </r>
      <r>     1.0580     0.0180     0.0071     0.0071     0.0015    -0.0001    -0.0000 </r>
      <r>     1.0866     0.0187     0.0073     0.0073     0.0015    -0.0001    -0.0000 </r>
      <r>     1.1152     0.0194     0.0075     0.0076     0.0016    -0.0001    -0.0000 </r>
      <r>     1.1438     0.0202     0.0078     0.0078     0.0017    -0.0001    -0.0000 </r>
      <r>     1.1724     0.0210     0.0080     0.0081     0.0017    -0.0001    -0.0000 </r>
      <r>     1.2010     0.0218     0.0083     0.0083     0.0018    -0.0001    -0.0000 </r>
      <r>     1.2296     0.0226     0.0085     0.0086     0.0019    -0.0001    -0.0000 </r>
      <r>     1.2582     0.0235     0.0088     0.0089     0.0020    -0.0001    -0.0000 </r>
      <r>     1.2868     0.0244     0.0090     0.0092     0.0021    -0.0001    -0.0000 </r>
      <r>     1.3154     0.0253     0.0093     0.0094     0.0021    -0.0001    -0.0000 </r>
      <r>     1.3440     0.0263     0.0096     0.0097     0.0022    -0.0001    -0.0001 </r>
      <r>     1.3726     0.0273     0.0099     0.0100     0.0023    -0.0001    -0.0001 </r>
      <r>     1.4011     0.0284     0.0102     0.0104     0.0024    -0.0001    -0.0001 </r>
      <r>     1.4297     0.0295     0.0105     0.0107     0.0025    -0.0001    -0.0001 </r>
      <r>     1.4583     0.0307     0.0108     0.0110     0.0026    -0.0001    -0.0001 </r>
      <r>     1.4869     0.0319     0.0111     0.0113     0.0028    -0.0001    -0.0001 </r>
      <r>     1.5155     0.0332     0.0114     0.0117     0.0029    -0.0001    -0.0001 </r>
      <r>     1.5441     0.0345     0.0117     0.0121     0.0030    -0.0001    -0.0001 </r>
      <r>     1.5727     0.0359     0.0120     0.0124     0.0031    -0.0001    -0.0001 </r>
      <r>     1.6013     0.0374     0.0124     0.0128     0.0033    -0.0001    -0.0001 </r>
      <r>     1.6299     0.0390     0.0127     0.0132     0.0034    -0.0001    -0.0001 </r>
      <r>     1.6585     0.0407     0.0131     0.0137     0.0036    -0.0001    -0.0001 </r>
      <r>     1.6871     0.0425     0.0135     0.0141     0.0038    -0.0001    -0.0002 </r>
      <r>     1.7157     0.0443     0.0139     0.0145     0.0040    -0.0001    -0.0002 </r>
      <r>     1.7443     0.0464     0.0143     0.0150     0.0042    -0.0001    -0.0002 </r>
      <r>     1.7729     0.0485     0.0147     0.0155     0.0044    -0.0001    -0.0002 </r>
      <r>     1.8015     0.0508     0.0151     0.0160     0.0046    -0.0001    -0.0002 </r>
      <r>     1.8301     0.0532     0.0155     0.0166     0.0049    -0.0001    -0.0003 </r>
      <r>     1.8587     0.0558     0.0160     0.0172     0.0051    -0.0001    -0.0003 </r>
      <r>     1.8873     0.0587     0.0165     0.0178     0.0054    -0.0002    -0.0003 </r>
      <r>     1.9159     0.0617     0.0170     0.0184     0.0057    -0.0002    -0.0003 </r>
      <r>     1.9445     0.0651     0.0175     0.0191     0.0061    -0.0002    -0.0004 </r>
      <r>     1.9730     0.0687     0.0180     0.0198     0.0065    -0.0002    -0.0004 </r>
      <r>     2.0016     0.0726     0.0186     0.0206     0.0069    -0.0002    -0.0005 </r>
      <r>     2.0302     0.0770     0.0192     0.0215     0.0074    -0.0002    -0.0006 </r>
      <r>     2.0588     0.0818     0.0198     0.0224     0.0079    -0.0002    -0.0006 </r>
      <r>     2.0874     0.0871     0.0205     0.0234     0.0085    -0.0002    -0.0007 </r>
      <r>     2.1160     0.0930     0.0212     0.0245     0.0091    -0.0003    -0.0008 </r>
      <r>     2.1446     0.0996     0.0219     0.0257     0.0098    -0.0003    -0.0009 </r>
      <r>     2.1732     0.1071     0.0228     0.0270     0.0107    -0.0003    -0.0011 </r>
      <r>     2.2018     0.1157     0.0236     0.0285     0.0117    -0.0003    -0.0012 </r>
      <r>     2.2304     0.1255     0.0246     0.0301     0.0128    -0.0004    -0.0014 </r>
      <r>     2.2590     0.1370     0.0256     0.0320     0.0142    -0.0004    -0.0017 </r>
      <r>     2.2876     0.1505     0.0268     0.0342     0.0158    -0.0004    -0.0020 </r>
      <r>     2.3162     0.1666     0.0282     0.0368     0.0179    -0.0005    -0.0024 </r>
      <r>     2.3448     0.1863     0.0297     0.0399     0.0204    -0.0006    -0.0029 </r>
      <r>     2.3734     0.2106     0.0316     0.0436     0.0236    -0.0007    -0.0036 </r>
      <r>     2.4020     0.2411     0.0337     0.0482     0.0277    -0.0008    -0.0044 </r>
      <r>     2.4306     0.2797     0.0362     0.0541     0.0327    -0.0009    -0.0056 </r>
      <r>     2.4592     0.3287     0.0387     0.0615     0.0386    -0.0011    -0.0072 </r>
      <r>     2.4878     0.3904     0.0412     0.0710     0.0453    -0.0014    -0.0093 </r>
      <r>     2.5164     0.4666     0.0437     0.0829     0.0531    -0.0018    -0.0121 </r>
      <r>     2.5449     0.5553     0.0463     0.0975     0.0618    -0.0023    -0.0157 </r>
      <r>     2.5735     0.6451     0.0491     0.1141     0.0704    -0.0027    -0.0195 </r>
      <r>     2.6021     0.7189     0.0519     0.1319     0.0774    -0.0029    -0.0225 </r>
      <r>     2.6307     0.7714     0.0547     0.1495     0.0822    -0.0027    -0.0244 </r>
      <r>     2.6593     0.8173     0.0578     0.1654     0.0863    -0.0022    -0.0251 </r>
      <r>     2.6879     0.8746     0.0611     0.1776     0.0910    -0.0017    -0.0254 </r>
      <r>     2.7165     0.9512     0.0651     0.1858     0.0971    -0.0016    -0.0256 </r>
      <r>     2.7451     1.0484     0.0697     0.1921     0.1044    -0.0017    -0.0260 </r>
      <r>     2.7737     1.1676     0.0753     0.1992     0.1129    -0.0021    -0.0261 </r>
      <r>     2.8023     1.3090     0.0823     0.2084     0.1223    -0.0025    -0.0253 </r>
      <r>     2.8309     1.4649     0.0910     0.2181     0.1318    -0.0030    -0.0223 </r>
      <r>     2.8595     1.6221     0.1017     0.2267     0.1400    -0.0034    -0.0160 </r>
      <r>     2.8881     1.7690     0.1147     0.2334     0.1465    -0.0035    -0.0067 </r>
      <r>     2.9167     1.8968     0.1302     0.2382     0.1521    -0.0036     0.0039 </r>
      <r>     2.9453     1.9954     0.1478     0.2401     0.1597    -0.0035     0.0136 </r>
      <r>     2.9739     2.0618     0.1667     0.2380     0.1731    -0.0036     0.0200 </r>
      <r>     3.0025     2.1117     0.1848     0.2303     0.1944    -0.0038     0.0219 </r>
      <r>     3.0311     2.1642     0.1989     0.2163     0.2207    -0.0041     0.0201 </r>
      <r>     3.0597     2.2159     0.2055     0.1969     0.2450    -0.0040     0.0171 </r>
      <r>     3.0882     2.2446     0.2038     0.1758     0.2613    -0.0031     0.0153 </r>
      <r>     3.1168     2.2316     0.1963     0.1572     0.2684    -0.0015     0.0150 </r>
      <r>     3.1454     2.1737     0.1869     0.1430     0.2688     0.0004     0.0158 </r>
      <r>     3.1740     2.0895     0.1782     0.1335     0.2660     0.0023     0.0171 </r>
      <r>     3.2026     2.0034     0.1713     0.1278     0.2630     0.0037     0.0184 </r>
      <r>     3.2312     1.9279     0.1668     0.1248     0.2613     0.0047     0.0193 </r>
      <r>     3.2598     1.8667     0.1648     0.1234     0.2618     0.0053     0.0195 </r>
      <r>     3.2884     1.8248     0.1652     0.1229     0.2656     0.0056     0.0187 </r>
      <r>     3.3170     1.8073     0.1678     0.1224     0.2731     0.0055     0.0172 </r>
      <r>     3.3456     1.8095     0.1720     0.1217     0.2823     0.0054     0.0151 </r>
      <r>     3.3742     1.8072     0.1762     0.1210     0.2874     0.0053     0.0127 </r>
      <r>     3.4028     1.7607     0.1786     0.1205     0.2808     0.0050     0.0106 </r>
      <r>     3.4314     1.6437     0.1782     0.1199     0.2586     0.0046     0.0090 </r>
      <r>     3.4600     1.4669     0.1761     0.1195     0.2243     0.0039     0.0083 </r>
      <r>     3.4886     1.2695     0.1749     0.1196     0.1858     0.0032     0.0087 </r>
      <r>     3.5172     1.0916     0.1763     0.1207     0.1502     0.0024     0.0101 </r>
      <r>     3.5458     0.9524     0.1810     0.1230     0.1208     0.0016     0.0122 </r>
      <r>     3.5744     0.8515     0.1883     0.1266     0.0981     0.0008     0.0143 </r>
      <r>     3.6030     0.7790     0.1968     0.1313     0.0812     0.0001     0.0160 </r>
      <r>     3.6316     0.7247     0.2054     0.1374     0.0695    -0.0005     0.0167 </r>
      <r>     3.6601     0.6835     0.2137     0.1451     0.0624    -0.0009     0.0166 </r>
      <r>     3.6887     0.6551     0.2221     0.1547     0.0596    -0.0009     0.0159 </r>
      <r>     3.7173     0.6392     0.2317     0.1663     0.0607    -0.0006     0.0150 </r>
      <r>     3.7459     0.6343     0.2436     0.1801     0.0652     0.0001     0.0138 </r>
      <r>     3.7745     0.6396     0.2585     0.1962     0.0722     0.0008     0.0122 </r>
      <r>     3.8031     0.6547     0.2765     0.2147     0.0801     0.0011     0.0103 </r>
      <r>     3.8317     0.6777     0.2975     0.2360     0.0868     0.0007     0.0083 </r>
      <r>     3.8603     0.7041     0.3217     0.2606     0.0907    -0.0005     0.0065 </r>
      <r>     3.8889     0.7310     0.3504     0.2895     0.0910    -0.0022     0.0052 </r>
      <r>     3.9175     0.7604     0.3859     0.3242     0.0881    -0.0043     0.0045 </r>
      <r>     3.9461     0.7960     0.4302     0.3659     0.0833    -0.0065     0.0043 </r>
      <r>     3.9747     0.8402     0.4854     0.4159     0.0774    -0.0086     0.0045 </r>
      <r>     4.0033     0.8930     0.5535     0.4755     0.0714    -0.0108     0.0047 </r>
      <r>     4.0319     0.9532     0.6374     0.5467     0.0652    -0.0132     0.0045 </r>
      <r>     4.0605     1.0224     0.7419     0.6342     0.0589    -0.0162     0.0033 </r>
      <r>     4.0891     1.1057     0.8724     0.7425     0.0521    -0.0201     0.0011 </r>
      <r>     4.1177     1.2065     1.0305     0.8736     0.0447    -0.0255    -0.0021 </r>
      <r>     4.1463     1.3238     1.2095     1.0222     0.0367    -0.0328    -0.0054 </r>
      <r>     4.1749     1.4523     1.3955     1.1720     0.0282    -0.0421    -0.0063 </r>
      <r>     4.2034     1.5853     1.5729     1.3012     0.0203    -0.0525    -0.0019 </r>
      <r>     4.2320     1.7169     1.7260     1.3977     0.0155    -0.0612     0.0073 </r>
      <r>     4.2606     1.8431     1.8396     1.4674     0.0166    -0.0647     0.0161 </r>
      <r>     4.2892     1.9630     1.9109     1.5255     0.0251    -0.0629     0.0190 </r>
      <r>     4.3178     2.0780     1.9571     1.5868     0.0388    -0.0582     0.0151 </r>
      <r>     4.3464     2.1892     2.0015     1.6606     0.0551    -0.0529     0.0073 </r>
      <r>     4.3750     2.2951     2.0593     1.7496     0.0733    -0.0471     0.0004 </r>
      <r>     4.4036     2.3916     2.1342     1.8490     0.0929    -0.0414    -0.0022 </r>
      <r>     4.4322     2.4705     2.2190     1.9477     0.1126    -0.0370    -0.0000 </r>
      <r>     4.4608     2.5217     2.3031     2.0339     0.1301    -0.0355     0.0060 </r>
      <r>     4.4894     2.5393     2.3787     2.1032     0.1415    -0.0374     0.0156 </r>
      <r>     4.5180     2.5237     2.4363     2.1584     0.1436    -0.0416     0.0262 </r>
      <r>     4.5466     2.4757     2.4644     2.2040     0.1355    -0.0452     0.0334 </r>
      <r>     4.5752     2.3979     2.4562     2.2425     0.1173    -0.0466     0.0354 </r>
      <r>     4.6038     2.2985     2.4152     2.2748     0.0912    -0.0471     0.0332 </r>
      <r>     4.6324     2.1893     2.3530     2.3013     0.0625    -0.0480     0.0279 </r>
      <r>     4.6610     2.0812     2.2831     2.3168     0.0380    -0.0475     0.0216 </r>
      <r>     4.6896     1.9828     2.2132     2.3091     0.0221    -0.0433     0.0162 </r>
      <r>     4.7182     1.8975     2.1428     2.2686     0.0163    -0.0333     0.0123 </r>
      <r>     4.7468     1.8245     2.0693     2.2019     0.0194    -0.0182     0.0088 </r>
      <r>     4.7753     1.7636     1.9968     2.1287     0.0284    -0.0023     0.0048 </r>
      <r>     4.8039     1.7162     1.9353     2.0673     0.0407     0.0102     0.0002 </r>
      <r>     4.8325     1.6817     1.8919     2.0272     0.0556     0.0179    -0.0042 </r>
      <r>     4.8611     1.6548     1.8643     2.0093     0.0717     0.0217    -0.0079 </r>
      <r>     4.8897     1.6294     1.8422     2.0060     0.0867     0.0235    -0.0109 </r>
      <r>     4.9183     1.6024     1.8145     2.0035     0.0983     0.0238    -0.0122 </r>
      <r>     4.9469     1.5737     1.7760     1.9878     0.1049     0.0226    -0.0113 </r>
      <r>     4.9755     1.5473     1.7304     1.9548     0.1058     0.0211    -0.0088 </r>
      <r>     5.0041     1.5279     1.6851     1.9107     0.1018     0.0210    -0.0056 </r>
      <r>     5.0327     1.5173     1.6450     1.8641     0.0942     0.0223    -0.0024 </r>
      <r>     5.0613     1.5124     1.6113     1.8198     0.0846     0.0242    -0.0004 </r>
      <r>     5.0899     1.5077     1.5847     1.7808     0.0740     0.0262    -0.0003 </r>
      <r>     5.1185     1.4993     1.5651     1.7483     0.0624     0.0281    -0.0013 </r>
      <r>     5.1471     1.4869     1.5513     1.7213     0.0497     0.0297    -0.0019 </r>
      <r>     5.1757     1.4716     1.5420     1.6974     0.0370     0.0313    -0.0006 </r>
      <r>     5.2043     1.4554     1.5360     1.6736     0.0259     0.0329     0.0025 </r>
      <r>     5.2329     1.4412     1.5316     1.6478     0.0168     0.0346     0.0061 </r>
      <r>     5.2615     1.4315     1.5279     1.6191     0.0095     0.0355     0.0085 </r>
      <r>     5.2901     1.4258     1.5242     1.5882     0.0036     0.0342     0.0087 </r>
      <r>     5.3186     1.4226     1.5197     1.5580    -0.0013     0.0298     0.0072 </r>
      <r>     5.3472     1.4212     1.5128     1.5306    -0.0060     0.0223     0.0056 </r>
      <r>     5.3758     1.4221     1.5020     1.5036    -0.0104     0.0140     0.0052 </r>
      <r>     5.4044     1.4253     1.4884     1.4718    -0.0139     0.0079     0.0063 </r>
      <r>     5.4330     1.4308     1.4757     1.4333    -0.0158     0.0059     0.0079 </r>
      <r>     5.4616     1.4379     1.4662     1.3894    -0.0153     0.0078     0.0092 </r>
      <r>     5.4902     1.4477     1.4582     1.3419    -0.0124     0.0127     0.0103 </r>
      <r>     5.5188     1.4634     1.4451     1.2917    -0.0083     0.0186     0.0115 </r>
      <r>     5.5474     1.4870     1.4186     1.2392    -0.0045     0.0234     0.0126 </r>
      <r>     5.5760     1.5164     1.3752     1.1849    -0.0020     0.0262     0.0129 </r>
      <r>     5.6046     1.5468     1.3205     1.1303    -0.0008     0.0278     0.0119 </r>
      <r>     5.6332     1.5725     1.2641     1.0783    -0.0008     0.0295     0.0103 </r>
      <r>     5.6618     1.5873     1.2143     1.0314    -0.0016     0.0320     0.0087 </r>
      <r>     5.6904     1.5872     1.1762     0.9911    -0.0036     0.0351     0.0076 </r>
      <r>     5.7190     1.5718     1.1501     0.9577    -0.0072     0.0382     0.0071 </r>
      <r>     5.7476     1.5434     1.1315     0.9312    -0.0124     0.0400     0.0068 </r>
      <r>     5.7762     1.5040     1.1144     0.9109    -0.0185     0.0387     0.0068 </r>
      <r>     5.8048     1.4553     1.0954     0.8942    -0.0254     0.0335     0.0072 </r>
      <r>     5.8334     1.3993     1.0734     0.8766    -0.0325     0.0256     0.0082 </r>
      <r>     5.8620     1.3394     1.0500     0.8550    -0.0381     0.0175     0.0097 </r>
      <r>     5.8905     1.2776     1.0277     0.8316    -0.0408     0.0112     0.0113 </r>
      <r>     5.9191     1.2140     1.0084     0.8102    -0.0416     0.0068     0.0123 </r>
      <r>     5.9477     1.1491     0.9921     0.7917    -0.0422     0.0036     0.0126 </r>
      <r>     5.9763     1.0864     0.9784     0.7739    -0.0435     0.0008     0.0129 </r>
      <r>     6.0049     1.0295     0.9670     0.7539    -0.0452    -0.0015     0.0136 </r>
      <r>     6.0335     0.9803     0.9574     0.7324    -0.0468    -0.0028     0.0145 </r>
      <r>     6.0621     0.9390     0.9490     0.7118    -0.0480    -0.0034     0.0147 </r>
      <r>     6.0907     0.9060     0.9430     0.6936    -0.0484    -0.0043     0.0144 </r>
      <r>     6.1193     0.8821     0.9404     0.6787    -0.0484    -0.0064     0.0143 </r>
      <r>     6.1479     0.8685     0.9416     0.6673    -0.0482    -0.0093     0.0144 </r>
      <r>     6.1765     0.8662     0.9459     0.6594    -0.0478    -0.0124     0.0147 </r>
      <r>     6.2051     0.8762     0.9532     0.6548    -0.0473    -0.0152     0.0150 </r>
      <r>     6.2337     0.8985     0.9636     0.6533    -0.0467    -0.0173     0.0151 </r>
      <r>     6.2623     0.9322     0.9774     0.6546    -0.0456    -0.0182     0.0147 </r>
      <r>     6.2909     0.9744     0.9955     0.6577    -0.0435    -0.0183     0.0137 </r>
      <r>     6.3195     1.0212     1.0182     0.6611    -0.0398    -0.0188     0.0121 </r>
      <r>     6.3481     1.0700     1.0453     0.6627    -0.0338    -0.0204     0.0103 </r>
      <r>     6.3767     1.1197     1.0758     0.6613    -0.0246    -0.0234     0.0087 </r>
      <r>     6.4053     1.1685     1.1070     0.6584    -0.0118    -0.0276     0.0074 </r>
      <r>     6.4338     1.2095     1.1359     0.6569     0.0050    -0.0323     0.0060 </r>
      <r>     6.4624     1.2315     1.1609     0.6596     0.0249    -0.0366     0.0043 </r>
      <r>     6.4910     1.2294     1.1821     0.6685     0.0452    -0.0402     0.0028 </r>
      <r>     6.5196     1.2109     1.2005     0.6853     0.0632    -0.0432     0.0019 </r>
      <r>     6.5482     1.1892     1.2175     0.7103     0.0764    -0.0451     0.0014 </r>
      <r>     6.5768     1.1741     1.2337     0.7428     0.0826    -0.0450     0.0009 </r>
      <r>     6.6054     1.1688     1.2492     0.7817     0.0811    -0.0421    -0.0000 </r>
      <r>     6.6340     1.1711     1.2646     0.8261     0.0733    -0.0367    -0.0011 </r>
      <r>     6.6626     1.1764     1.2828     0.8744     0.0619    -0.0300    -0.0017 </r>
      <r>     6.6912     1.1787     1.3063     0.9252     0.0491    -0.0237    -0.0018 </r>
      <r>     6.7198     1.1733     1.3329     0.9787     0.0359    -0.0189    -0.0019 </r>
      <r>     6.7484     1.1601     1.3554     1.0351     0.0224    -0.0166    -0.0023 </r>
      <r>     6.7770     1.1432     1.3670     1.0937     0.0086    -0.0167    -0.0032 </r>
      <r>     6.8056     1.1273     1.3678     1.1528    -0.0044    -0.0186    -0.0048 </r>
      <r>     6.8342     1.1152     1.3646     1.2111    -0.0152    -0.0211    -0.0067 </r>
      <r>     6.8628     1.1067     1.3641     1.2676    -0.0235    -0.0241    -0.0087 </r>
      <r>     6.8914     1.0986     1.3682     1.3230    -0.0297    -0.0278    -0.0104 </r>
      <r>     6.9200     1.0874     1.3751     1.3797    -0.0338    -0.0317    -0.0116 </r>
      <r>     6.9486     1.0724     1.3836     1.4388    -0.0351    -0.0348    -0.0118 </r>
      <r>     6.9772     1.0571     1.3932     1.4990    -0.0333    -0.0370    -0.0112 </r>
      <r>     7.0057     1.0463     1.4036     1.5578    -0.0295    -0.0379    -0.0096 </r>
      <r>     7.0343     1.0413     1.4139     1.6098    -0.0255    -0.0369    -0.0076 </r>
      <r>     7.0629     1.0399     1.4212     1.6478    -0.0233    -0.0331    -0.0052 </r>
      <r>     7.0915     1.0394     1.4216     1.6655    -0.0236    -0.0263    -0.0029 </r>
      <r>     7.1201     1.0387     1.4142     1.6612    -0.0256    -0.0177    -0.0007 </r>
      <r>     7.1487     1.0385     1.4026     1.6384    -0.0276    -0.0093     0.0013 </r>
      <r>     7.1773     1.0409     1.3922     1.6059    -0.0284    -0.0025     0.0025 </r>
      <r>     7.2059     1.0470     1.3861     1.5739    -0.0283     0.0023     0.0028 </r>
      <r>     7.2345     1.0561     1.3853     1.5487    -0.0279     0.0051     0.0029 </r>
      <r>     7.2631     1.0672     1.3907     1.5305    -0.0278     0.0065     0.0029 </r>
      <r>     7.2917     1.0789     1.4011     1.5174    -0.0271     0.0076     0.0026 </r>
      <r>     7.3203     1.0873     1.4117     1.5111    -0.0256     0.0088     0.0022 </r>
      <r>     7.3489     1.0906     1.4189     1.5157    -0.0240     0.0095     0.0025 </r>
      <r>     7.3775     1.0912     1.4229     1.5345    -0.0239     0.0090     0.0039 </r>
      <r>     7.4061     1.0903     1.4273     1.5677    -0.0263     0.0077     0.0056 </r>
      <r>     7.4347     1.0858     1.4362     1.6108    -0.0305     0.0055     0.0065 </r>
      <r>     7.4633     1.0768     1.4515     1.6551    -0.0360     0.0025     0.0061 </r>
      <r>     7.4919     1.0653     1.4726     1.6919    -0.0428    -0.0013     0.0045 </r>
      <r>     7.5205     1.0538     1.4967     1.7171    -0.0495    -0.0054     0.0030 </r>
      <r>     7.5491     1.0427     1.5174     1.7271    -0.0533    -0.0083     0.0023 </r>
      <r>     7.5776     1.0299     1.5277     1.7180    -0.0524    -0.0089     0.0024 </r>
      <r>     7.6062     1.0121     1.5249     1.6905    -0.0480    -0.0075     0.0025 </r>
      <r>     7.6348     0.9873     1.5097     1.6494    -0.0434    -0.0051     0.0015 </r>
      <r>     7.6634     0.9574     1.4828     1.6014    -0.0412    -0.0022    -0.0007 </r>
      <r>     7.6920     0.9272     1.4448     1.5522    -0.0421     0.0008    -0.0033 </r>
      <r>     7.7206     0.9020     1.3965     1.5059    -0.0451     0.0038    -0.0052 </r>
      <r>     7.7492     0.8842     1.3417     1.4647    -0.0495     0.0056    -0.0061 </r>
      <r>     7.7778     0.8721     1.2890     1.4297    -0.0549     0.0053    -0.0056 </r>
      <r>     7.8064     0.8643     1.2490     1.4017    -0.0610     0.0032    -0.0041 </r>
      <r>     7.8350     0.8622     1.2260     1.3814    -0.0672     0.0003    -0.0019 </r>
      <r>     7.8636     0.8684     1.2171     1.3696    -0.0730    -0.0028     0.0005 </r>
      <r>     7.8922     0.8834     1.2167     1.3682    -0.0778    -0.0050     0.0029 </r>
      <r>     7.9208     0.9042     1.2203     1.3759    -0.0806    -0.0055     0.0047 </r>
      <r>     7.9494     0.9248     1.2243     1.3868    -0.0804    -0.0049     0.0058 </r>
      <r>     7.9780     0.9386     1.2228     1.3946    -0.0762    -0.0042     0.0061 </r>
      <r>     8.0066     0.9427     1.2103     1.3957    -0.0684    -0.0027     0.0052 </r>
      <r>     8.0352     0.9391     1.1856     1.3877    -0.0593     0.0015     0.0031 </r>
      <r>     8.0638     0.9315     1.1512     1.3688    -0.0515     0.0084     0.0009 </r>
      <r>     8.0924     0.9211     1.1119     1.3398    -0.0458     0.0174    -0.0003 </r>
      <r>     8.1209     0.9070     1.0729     1.3045    -0.0425     0.0270    -0.0002 </r>
      <r>     8.1495     0.8875     1.0376     1.2668    -0.0420     0.0349     0.0011 </r>
      <r>     8.1781     0.8631     1.0065     1.2262    -0.0437     0.0394     0.0030 </r>
      <r>     8.2067     0.8376     0.9795     1.1794    -0.0463     0.0401     0.0044 </r>
      <r>     8.2353     0.8158     0.9573     1.1263    -0.0487     0.0376     0.0050 </r>
      <r>     8.2639     0.8003     0.9406     1.0708    -0.0508     0.0330     0.0048 </r>
      <r>     8.2925     0.7916     0.9308     1.0189    -0.0528     0.0275     0.0048 </r>
      <r>     8.3211     0.7888     0.9283     0.9755    -0.0545     0.0225     0.0054 </r>
      <r>     8.3497     0.7901     0.9313     0.9430    -0.0553     0.0186     0.0060 </r>
      <r>     8.3783     0.7931     0.9384     0.9218    -0.0545     0.0152     0.0060 </r>
      <r>     8.4069     0.7957     0.9495     0.9109    -0.0529     0.0121     0.0056 </r>
      <r>     8.4355     0.7948     0.9633     0.9079    -0.0511     0.0098     0.0053 </r>
      <r>     8.4641     0.7885     0.9765     0.9088    -0.0490     0.0088     0.0052 </r>
      <r>     8.4927     0.7774     0.9857     0.9093    -0.0455     0.0085     0.0057 </r>
      <r>     8.5213     0.7650     0.9889     0.9068    -0.0408     0.0080     0.0066 </r>
      <r>     8.5499     0.7539     0.9845     0.8996    -0.0363     0.0072     0.0072 </r>
      <r>     8.5785     0.7440     0.9707     0.8879    -0.0330     0.0065     0.0068 </r>
      <r>     8.6071     0.7336     0.9480     0.8738    -0.0301     0.0060     0.0057 </r>
      <r>     8.6357     0.7216     0.9205     0.8606    -0.0268     0.0054     0.0048 </r>
      <r>     8.6643     0.7073     0.8935     0.8495    -0.0233     0.0046     0.0045 </r>
      <r>     8.6928     0.6913     0.8692     0.8401    -0.0202     0.0042     0.0049 </r>
      <r>     8.7214     0.6754     0.8462     0.8318    -0.0175     0.0048     0.0054 </r>
      <r>     8.7500     0.6613     0.8241     0.8248    -0.0147     0.0074     0.0062 </r>
      <r>     8.7786     0.6505     0.8040     0.8193    -0.0123     0.0112     0.0070 </r>
      <r>     8.8072     0.6441     0.7879     0.8168    -0.0111     0.0144     0.0075 </r>
      <r>     8.8358     0.6432     0.7764     0.8191    -0.0113     0.0158     0.0076 </r>
      <r>     8.8644     0.6488     0.7687     0.8254    -0.0122     0.0150     0.0073 </r>
      <r>     8.8930     0.6602     0.7627     0.8312    -0.0121     0.0122     0.0064 </r>
      <r>     8.9216     0.6749     0.7570     0.8317    -0.0098     0.0089     0.0054 </r>
      <r>     8.9502     0.6902     0.7520     0.8257    -0.0053     0.0070     0.0049 </r>
      <r>     8.9788     0.7043     0.7489     0.8147    -0.0003     0.0072     0.0054 </r>
      <r>     9.0074     0.7146     0.7486     0.8008     0.0036     0.0079     0.0066 </r>
      <r>     9.0360     0.7188     0.7510     0.7859     0.0062     0.0075     0.0076 </r>
      <r>     9.0646     0.7166     0.7535     0.7698     0.0085     0.0057     0.0075 </r>
      <r>     9.0932     0.7091     0.7513     0.7509     0.0107     0.0040     0.0065 </r>
      <r>     9.1218     0.6986     0.7432     0.7297     0.0124     0.0032     0.0052 </r>
      <r>     9.1504     0.6870     0.7333     0.7095     0.0130     0.0028     0.0042 </r>
      <r>     9.1790     0.6744     0.7263     0.6928     0.0121     0.0023     0.0037 </r>
      <r>     9.2076     0.6606     0.7233     0.6803     0.0091     0.0012     0.0032 </r>
      <r>     9.2361     0.6478     0.7219     0.6726     0.0043    -0.0005     0.0025 </r>
      <r>     9.2647     0.6390     0.7200     0.6714    -0.0010    -0.0025     0.0018 </r>
      <r>     9.2933     0.6358     0.7175     0.6770    -0.0053    -0.0045     0.0010 </r>
      <r>     9.3219     0.6373     0.7157     0.6864    -0.0082    -0.0064     0.0005 </r>
      <r>     9.3505     0.6422     0.7152     0.6937    -0.0091    -0.0079     0.0005 </r>
      <r>     9.3791     0.6484     0.7150     0.6939    -0.0076    -0.0089     0.0012 </r>
      <r>     9.4077     0.6549     0.7147     0.6867    -0.0041    -0.0091     0.0020 </r>
      <r>     9.4363     0.6617     0.7147     0.6767    -0.0002    -0.0084     0.0020 </r>
      <r>     9.4649     0.6694     0.7145     0.6682     0.0030    -0.0067     0.0014 </r>
      <r>     9.4935     0.6753     0.7131     0.6626     0.0050    -0.0041     0.0008 </r>
      <r>     9.5221     0.6751     0.7106     0.6594     0.0056    -0.0012     0.0010 </r>
      <r>     9.5507     0.6671     0.7070     0.6582     0.0044     0.0007     0.0017 </r>
      <r>     9.5793     0.6553     0.7023     0.6588     0.0014     0.0007     0.0025 </r>
      <r>     9.6079     0.6463     0.6978     0.6615    -0.0027    -0.0006     0.0026 </r>
      <r>     9.6365     0.6440     0.6944     0.6655    -0.0069    -0.0013     0.0013 </r>
      <r>     9.6651     0.6476     0.6921     0.6685    -0.0101    -0.0004    -0.0006 </r>
      <r>     9.6937     0.6541     0.6905     0.6680    -0.0116     0.0020    -0.0022 </r>
      <r>     9.7223     0.6616     0.6906     0.6639    -0.0115     0.0047    -0.0032 </r>
      <r>     9.7509     0.6704     0.6936     0.6593    -0.0102     0.0063    -0.0033 </r>
      <r>     9.7795     0.6815     0.6997     0.6572    -0.0087     0.0062    -0.0024 </r>
      <r>     9.8080     0.6937     0.7066     0.6590    -0.0072     0.0048    -0.0009 </r>
      <r>     9.8366     0.7029     0.7113     0.6647    -0.0054     0.0034     0.0002 </r>
      <r>     9.8652     0.7050     0.7128     0.6736    -0.0039     0.0024     0.0002 </r>
      <r>     9.8938     0.7007     0.7118     0.6850    -0.0033     0.0017    -0.0007 </r>
      <r>     9.9224     0.6942     0.7097     0.6973    -0.0033     0.0009    -0.0017 </r>
      <r>     9.9510     0.6883     0.7067     0.7080    -0.0022     0.0000    -0.0022 </r>
      <r>     9.9796     0.6834     0.7014     0.7131     0.0008    -0.0003    -0.0020 </r>
      <r>    10.0082     0.6788     0.6940     0.7097     0.0048    -0.0003    -0.0018 </r>
      <r>    10.0368     0.6754     0.6880     0.6987     0.0087    -0.0009    -0.0023 </r>
      <r>    10.0654     0.6748     0.6868     0.6854     0.0117    -0.0031    -0.0030 </r>
      <r>    10.0940     0.6782     0.6891     0.6750     0.0139    -0.0062    -0.0032 </r>
      <r>    10.1226     0.6845     0.6925     0.6704     0.0153    -0.0087    -0.0025 </r>
      <r>    10.1512     0.6920     0.6961     0.6716     0.0154    -0.0089    -0.0008 </r>
      <r>    10.1798     0.6997     0.6998     0.6766     0.0144    -0.0063     0.0015 </r>
      <r>    10.2084     0.7068     0.7034     0.6834     0.0135    -0.0023     0.0040 </r>
      <r>    10.2370     0.7111     0.7067     0.6909     0.0135     0.0016     0.0057 </r>
      <r>    10.2656     0.7107     0.7093     0.6983     0.0149     0.0042     0.0060 </r>
      <r>    10.2942     0.7060     0.7103     0.7033     0.0169     0.0051     0.0052 </r>
      <r>    10.3228     0.6996     0.7087     0.7047     0.0186     0.0043     0.0038 </r>
      <r>    10.3513     0.6945     0.7047     0.7032     0.0195     0.0031     0.0025 </r>
      <r>    10.3799     0.6926     0.6995     0.7001     0.0195     0.0022     0.0018 </r>
      <r>    10.4085     0.6936     0.6951     0.6961     0.0188     0.0016     0.0018 </r>
      <r>    10.4371     0.6967     0.6931     0.6915     0.0172     0.0014     0.0021 </r>
      <r>    10.4657     0.7015     0.6943     0.6874     0.0145     0.0016     0.0028 </r>
      <r>    10.4943     0.7074     0.6992     0.6851     0.0113     0.0027     0.0037 </r>
      <r>    10.5229     0.7137     0.7074     0.6860     0.0080     0.0052     0.0043 </r>
      <r>    10.5515     0.7200     0.7167     0.6914     0.0045     0.0090     0.0034 </r>
      <r>    10.5801     0.7261     0.7251     0.7008     0.0008     0.0131     0.0014 </r>
      <r>    10.6087     0.7315     0.7307     0.7126    -0.0024     0.0166    -0.0000 </r>
      <r>    10.6373     0.7357     0.7326     0.7236    -0.0038     0.0187     0.0001 </r>
      <r>    10.6659     0.7382     0.7320     0.7303    -0.0033     0.0193     0.0009 </r>
      <r>    10.6945     0.7389     0.7303     0.7295    -0.0012     0.0186     0.0010 </r>
      <r>    10.7231     0.7370     0.7262     0.7211     0.0017     0.0170    -0.0010 </r>
      <r>    10.7517     0.7325     0.7181     0.7086     0.0047     0.0144    -0.0044 </r>
      <r>    10.7803     0.7270     0.7074     0.6960     0.0071     0.0115    -0.0076 </r>
      <r>    10.8089     0.7226     0.6970     0.6849     0.0080     0.0090    -0.0090 </r>
      <r>    10.8375     0.7202     0.6879     0.6746     0.0068     0.0069    -0.0081 </r>
      <r>    10.8661     0.7185     0.6793     0.6643     0.0041     0.0048    -0.0058 </r>
      <r>    10.8947     0.7162     0.6706     0.6548     0.0020     0.0029    -0.0036 </r>
      <r>    10.9232     0.7135     0.6625     0.6468     0.0023     0.0015    -0.0025 </r>
      <r>    10.9518     0.7120     0.6557     0.6414     0.0054     0.0009    -0.0025 </r>
      <r>    10.9804     0.7119     0.6508     0.6398     0.0106     0.0013    -0.0033 </r>
      <r>    11.0090     0.7127     0.6474     0.6429     0.0161     0.0023    -0.0044 </r>
      <r>    11.0376     0.7146     0.6457     0.6514     0.0203     0.0036    -0.0052 </r>
      <r>    11.0662     0.7180     0.6462     0.6644     0.0220     0.0051    -0.0051 </r>
      <r>    11.0948     0.7225     0.6491     0.6793     0.0220     0.0067    -0.0044 </r>
      <r>    11.1234     0.7260     0.6535     0.6924     0.0214     0.0077    -0.0035 </r>
      <r>    11.1520     0.7263     0.6580     0.7005     0.0211     0.0076    -0.0029 </r>
      <r>    11.1806     0.7220     0.6621     0.7031     0.0211     0.0065    -0.0025 </r>
      <r>    11.2092     0.7131     0.6657     0.7026     0.0208     0.0057    -0.0019 </r>
      <r>    11.2378     0.7018     0.6684     0.7026     0.0192     0.0062    -0.0012 </r>
      <r>    11.2664     0.6914     0.6705     0.7068     0.0161     0.0081    -0.0007 </r>
      <r>    11.2950     0.6845     0.6729     0.7159     0.0119     0.0101    -0.0003 </r>
      <r>    11.3236     0.6824     0.6759     0.7272     0.0074     0.0109     0.0002 </r>
      <r>    11.3522     0.6848     0.6795     0.7358     0.0035     0.0101     0.0009 </r>
      <r>    11.3808     0.6895     0.6838     0.7384     0.0006     0.0079     0.0012 </r>
      <r>    11.4094     0.6942     0.6890     0.7358    -0.0003     0.0048     0.0011 </r>
      <r>    11.4380     0.6977     0.6954     0.7313     0.0008     0.0018     0.0008 </r>
      <r>    11.4665     0.7004     0.7026     0.7276     0.0029    -0.0002     0.0007 </r>
      <r>    11.4951     0.7025     0.7094     0.7249     0.0043    -0.0009     0.0011 </r>
      <r>    11.5237     0.7042     0.7157     0.7233     0.0046    -0.0010     0.0014 </r>
      <r>    11.5523     0.7050     0.7223     0.7238     0.0044    -0.0015     0.0014 </r>
      <r>    11.5809     0.7049     0.7298     0.7259     0.0041    -0.0029     0.0012 </r>
      <r>    11.6095     0.7041     0.7377     0.7281     0.0035    -0.0049     0.0008 </r>
      <r>    11.6381     0.7040     0.7453     0.7302     0.0024    -0.0074     0.0002 </r>
      <r>    11.6667     0.7055     0.7504     0.7326     0.0012    -0.0099    -0.0004 </r>
      <r>    11.6953     0.7088     0.7516     0.7361     0.0008    -0.0115    -0.0008 </r>
      <r>    11.7239     0.7132     0.7496     0.7406     0.0017    -0.0115    -0.0013 </r>
      <r>    11.7525     0.7177     0.7463     0.7449     0.0034    -0.0096    -0.0019 </r>
      <r>    11.7811     0.7214     0.7417     0.7466     0.0051    -0.0060    -0.0026 </r>
      <r>    11.8097     0.7243     0.7351     0.7440     0.0065    -0.0015    -0.0032 </r>
      <r>    11.8383     0.7272     0.7273     0.7376     0.0074     0.0028    -0.0033 </r>
      <r>    11.8669     0.7298     0.7204     0.7303     0.0081     0.0066    -0.0031 </r>
      <r>    11.8955     0.7314     0.7153     0.7241     0.0083     0.0098    -0.0031 </r>
      <r>    11.9241     0.7329     0.7116     0.7195     0.0084     0.0123    -0.0035 </r>
      <r>    11.9527     0.7355     0.7094     0.7167     0.0086     0.0134    -0.0038 </r>
      <r>    11.9813     0.7396     0.7095     0.7160     0.0092     0.0128    -0.0036 </r>
      <r>    12.0099     0.7453     0.7119     0.7174     0.0102     0.0110    -0.0024 </r>
      <r>    12.0384     0.7521     0.7163     0.7195     0.0106     0.0085    -0.0005 </r>
      <r>    12.0670     0.7587     0.7224     0.7200     0.0094     0.0054     0.0018 </r>
      <r>    12.0956     0.7647     0.7298     0.7176     0.0065     0.0018     0.0038 </r>
      <r>    12.1242     0.7708     0.7381     0.7133     0.0026    -0.0013     0.0045 </r>
      <r>    12.1528     0.7776     0.7470     0.7094    -0.0013    -0.0029     0.0039 </r>
      <r>    12.1814     0.7848     0.7565     0.7081    -0.0039    -0.0023     0.0024 </r>
      <r>    12.2100     0.7925     0.7662     0.7102    -0.0044     0.0001     0.0013 </r>
      <r>    12.2386     0.8003     0.7755     0.7145    -0.0032     0.0027     0.0017 </r>
      <r>    12.2672     0.8068     0.7829     0.7195    -0.0019     0.0041     0.0040 </r>
      <r>    12.2958     0.8107     0.7870     0.7240    -0.0018     0.0038     0.0071 </r>
      <r>    12.3244     0.8112     0.7880     0.7279    -0.0029     0.0023     0.0095 </r>
      <r>    12.3530     0.8087     0.7869     0.7316    -0.0043     0.0014     0.0107 </r>
      <r>    12.3816     0.8047     0.7852     0.7363    -0.0049     0.0021     0.0107 </r>
      <r>    12.4102     0.8010     0.7843     0.7429    -0.0043     0.0042     0.0100 </r>
      <r>    12.4388     0.7969     0.7840     0.7509    -0.0036     0.0067     0.0083 </r>
      <r>    12.4674     0.7905     0.7832     0.7598    -0.0040     0.0089     0.0051 </r>
      <r>    12.4960     0.7814     0.7813     0.7684    -0.0061     0.0100     0.0011 </r>
      <r>    12.5246     0.7714     0.7793     0.7752    -0.0092     0.0095    -0.0024 </r>
      <r>    12.5532     0.7621     0.7784     0.7784    -0.0125     0.0073    -0.0044 </r>
      <r>    12.5818     0.7543     0.7783     0.7771    -0.0148     0.0041    -0.0049 </r>
      <r>    12.6103     0.7489     0.7784     0.7728    -0.0153     0.0008    -0.0042 </r>
      <r>    12.6389     0.7467     0.7783     0.7681    -0.0139    -0.0020    -0.0033 </r>
      <r>    12.6675     0.7475     0.7777     0.7641    -0.0115    -0.0038    -0.0031 </r>
      <r>    12.6961     0.7503     0.7767     0.7602    -0.0085    -0.0047    -0.0040 </r>
      <r>    12.7247     0.7542     0.7763     0.7567    -0.0055    -0.0050    -0.0053 </r>
      <r>    12.7533     0.7585     0.7772     0.7551    -0.0028    -0.0045    -0.0064 </r>
      <r>    12.7819     0.7633     0.7796     0.7570    -0.0003    -0.0032    -0.0071 </r>
      <r>    12.8105     0.7698     0.7826     0.7620     0.0016    -0.0008    -0.0073 </r>
      <r>    12.8391     0.7790     0.7843     0.7674     0.0026     0.0019    -0.0069 </r>
      <r>    12.8677     0.7905     0.7834     0.7709     0.0032     0.0043    -0.0062 </r>
      <r>    12.8963     0.8020     0.7808     0.7720     0.0035     0.0057    -0.0053 </r>
      <r>    12.9249     0.8111     0.7776     0.7716     0.0037     0.0069    -0.0043 </r>
      <r>    12.9535     0.8163     0.7733     0.7695     0.0041     0.0082    -0.0035 </r>
      <r>    12.9821     0.8182     0.7672     0.7653     0.0051     0.0095    -0.0034 </r>
      <r>    13.0107     0.8181     0.7599     0.7601     0.0069     0.0101    -0.0040 </r>
      <r>    13.0393     0.8176     0.7529     0.7554     0.0089     0.0093    -0.0049 </r>
      <r>    13.0679     0.8166     0.7471     0.7516     0.0106     0.0072    -0.0055 </r>
      <r>    13.0965     0.8146     0.7429     0.7487     0.0118     0.0052    -0.0054 </r>
      <r>    13.1251     0.8115     0.7405     0.7472     0.0121     0.0046    -0.0047 </r>
      <r>    13.1536     0.8077     0.7403     0.7470     0.0115     0.0053    -0.0040 </r>
      <r>    13.1822     0.8034     0.7413     0.7470     0.0098     0.0067    -0.0038 </r>
      <r>    13.2108     0.7988     0.7424     0.7460     0.0066     0.0082    -0.0040 </r>
      <r>    13.2394     0.7951     0.7431     0.7439     0.0024     0.0091    -0.0042 </r>
      <r>    13.2680     0.7932     0.7442     0.7424    -0.0022     0.0093    -0.0037 </r>
      <r>    13.2966     0.7935     0.7465     0.7427    -0.0064     0.0086    -0.0025 </r>
      <r>    13.3252     0.7954     0.7493     0.7445    -0.0099     0.0071    -0.0013 </r>
      <r>    13.3538     0.7975     0.7508     0.7465    -0.0125     0.0051    -0.0005 </r>
      <r>    13.3824     0.7986     0.7502     0.7481    -0.0140     0.0033     0.0002 </r>
      <r>    13.4110     0.7985     0.7489     0.7490    -0.0145     0.0021     0.0009 </r>
      <r>    13.4396     0.7975     0.7485     0.7494    -0.0141     0.0018     0.0014 </r>
      <r>    13.4682     0.7954     0.7485     0.7487    -0.0126     0.0024     0.0019 </r>
      <r>    13.4968     0.7916     0.7473     0.7467    -0.0100     0.0038     0.0026 </r>
      <r>    13.5254     0.7865     0.7448     0.7436    -0.0068     0.0054     0.0039 </r>
      <r>    13.5540     0.7812     0.7426     0.7400    -0.0042     0.0069     0.0056 </r>
      <r>    13.5826     0.7765     0.7416     0.7364    -0.0028     0.0082     0.0072 </r>
      <r>    13.6112     0.7721     0.7416     0.7331    -0.0027     0.0089     0.0078 </r>
      <r>    13.6398     0.7677     0.7417     0.7306    -0.0032     0.0092     0.0075 </r>
      <r>    13.6684     0.7635     0.7413     0.7298    -0.0041     0.0095     0.0066 </r>
      <r>    13.6970     0.7601     0.7407     0.7312    -0.0055     0.0104     0.0060 </r>
      <r>    13.7255     0.7578     0.7407     0.7334    -0.0071     0.0117     0.0065 </r>
      <r>    13.7541     0.7562     0.7423     0.7341    -0.0084     0.0128     0.0078 </r>
      <r>    13.7827     0.7542     0.7459     0.7322    -0.0090     0.0132     0.0094 </r>
      <r>    13.8113     0.7516     0.7505     0.7286    -0.0096     0.0131     0.0105 </r>
      <r>    13.8399     0.7491     0.7546     0.7243    -0.0112     0.0125     0.0108 </r>
      <r>    13.8685     0.7474     0.7567     0.7199    -0.0139     0.0113     0.0101 </r>
      <r>    13.8971     0.7464     0.7570     0.7161    -0.0167     0.0100     0.0087 </r>
      <r>    13.9257     0.7456     0.7562     0.7130    -0.0188     0.0090     0.0071 </r>
      <r>    13.9543     0.7442     0.7546     0.7105    -0.0198     0.0084     0.0056 </r>
      <r>    13.9829     0.7417     0.7522     0.7080    -0.0198     0.0079     0.0043 </r>
      <r>    14.0115     0.7387     0.7486     0.7053    -0.0186     0.0072     0.0029 </r>
      <r>    14.0401     0.7359     0.7441     0.7023    -0.0167     0.0063     0.0009 </r>
      <r>    14.0687     0.7337     0.7388     0.6993    -0.0146     0.0054    -0.0013 </r>
      <r>    14.0973     0.7319     0.7332     0.6963    -0.0128     0.0050    -0.0032 </r>
      <r>    14.1259     0.7296     0.7279     0.6933    -0.0117     0.0049    -0.0042 </r>
      <r>    14.1545     0.7259     0.7232     0.6906    -0.0115     0.0051    -0.0047 </r>
      <r>    14.1831     0.7204     0.7188     0.6879    -0.0116     0.0055    -0.0047 </r>
      <r>    14.2117     0.7134     0.7139     0.6849    -0.0116     0.0066    -0.0042 </r>
      <r>    14.2403     0.7055     0.7083     0.6810    -0.0110     0.0086    -0.0034 </r>
      <r>    14.2688     0.6978     0.7018     0.6762    -0.0102     0.0109    -0.0023 </r>
      <r>    14.2974     0.6913     0.6953     0.6709    -0.0094     0.0124    -0.0010 </r>
      <r>    14.3260     0.6857     0.6896     0.6660    -0.0086     0.0126     0.0005 </r>
      <r>    14.3546     0.6803     0.6843     0.6623    -0.0072     0.0117     0.0022 </r>
      <r>    14.3832     0.6746     0.6781     0.6597    -0.0057     0.0104     0.0040 </r>
      <r>    14.4118     0.6696     0.6710     0.6580    -0.0046     0.0090     0.0062 </r>
      <r>    14.4404     0.6664     0.6642     0.6563    -0.0043     0.0079     0.0081 </r>
      <r>    14.4690     0.6656     0.6589     0.6531    -0.0049     0.0070     0.0093 </r>
      <r>    14.4976     0.6668     0.6549     0.6481    -0.0060     0.0061     0.0094 </r>
      <r>    14.5262     0.6687     0.6513     0.6426    -0.0074     0.0050     0.0082 </r>
      <r>    14.5548     0.6697     0.6477     0.6389    -0.0088     0.0035     0.0060 </r>
      <r>    14.5834     0.6692     0.6444     0.6382    -0.0100     0.0017     0.0037 </r>
      <r>    14.6120     0.6676     0.6419     0.6398    -0.0107     0.0001     0.0022 </r>
      <r>    14.6406     0.6656     0.6396     0.6416    -0.0108    -0.0011     0.0020 </r>
      <r>    14.6692     0.6633     0.6367     0.6417    -0.0102    -0.0022     0.0027 </r>
      <r>    14.6978     0.6603     0.6330     0.6400    -0.0090    -0.0039     0.0034 </r>
      <r>    14.7264     0.6565     0.6291     0.6374    -0.0073    -0.0061     0.0034 </r>
      <r>    14.7550     0.6520     0.6255     0.6352    -0.0054    -0.0081     0.0028 </r>
      <r>    14.7836     0.6470     0.6221     0.6334    -0.0037    -0.0092     0.0023 </r>
      <r>    14.8122     0.6417     0.6186     0.6314    -0.0028    -0.0096     0.0022 </r>
      <r>    14.8407     0.6364     0.6152     0.6290    -0.0027    -0.0098     0.0025 </r>
      <r>    14.8693     0.6312     0.6120     0.6266    -0.0030    -0.0100     0.0026 </r>
      <r>    14.8979     0.6262     0.6090     0.6245    -0.0030    -0.0102     0.0023 </r>
      <r>    14.9265     0.6215     0.6063     0.6228    -0.0024    -0.0103     0.0017 </r>
      <r>    14.9551     0.6173     0.6039     0.6211    -0.0015    -0.0102     0.0013 </r>
      <r>    14.9837     0.6141     0.6018     0.6190    -0.0006    -0.0100     0.0013 </r>
      <r>    15.0123     0.6119     0.5998     0.6163    -0.0001    -0.0099     0.0018 </r>
      <r>    15.0409     0.6109     0.5979     0.6133     0.0002    -0.0097     0.0024 </r>
      <r>    15.0695     0.6110     0.5962     0.6104     0.0002    -0.0090     0.0031 </r>
      <r>    15.0981     0.6118     0.5948     0.6079     0.0003    -0.0082     0.0034 </r>
      <r>    15.1267     0.6122     0.5931     0.6057     0.0007    -0.0074     0.0032 </r>
      <r>    15.1553     0.6111     0.5909     0.6032     0.0011    -0.0069     0.0026 </r>
      <r>    15.1839     0.6082     0.5884     0.5996     0.0017    -0.0066     0.0017 </r>
      <r>    15.2125     0.6042     0.5858     0.5948     0.0024    -0.0067     0.0004 </r>
      <r>    15.2411     0.5998     0.5829     0.5894     0.0025    -0.0069    -0.0014 </r>
      <r>    15.2697     0.5959     0.5796     0.5842     0.0018    -0.0067    -0.0032 </r>
      <r>    15.2983     0.5926     0.5762     0.5795     0.0005    -0.0059    -0.0047 </r>
      <r>    15.3269     0.5895     0.5732     0.5754    -0.0007    -0.0048    -0.0058 </r>
      <r>    15.3555     0.5860     0.5704     0.5715    -0.0014    -0.0038    -0.0064 </r>
      <r>    15.3840     0.5812     0.5673     0.5671    -0.0013    -0.0037    -0.0064 </r>
      <r>    15.4126     0.5755     0.5638     0.5619    -0.0003    -0.0043    -0.0059 </r>
      <r>    15.4412     0.5701     0.5605     0.5562     0.0011    -0.0054    -0.0052 </r>
      <r>    15.4698     0.5658     0.5573     0.5509     0.0027    -0.0067    -0.0046 </r>
      <r>    15.4984     0.5622     0.5539     0.5458     0.0042    -0.0081    -0.0045 </r>
      <r>    15.5270     0.5583     0.5496     0.5404     0.0054    -0.0090    -0.0050 </r>
      <r>    15.5556     0.5534     0.5441     0.5337     0.0061    -0.0091    -0.0057 </r>
      <r>    15.5842     0.5470     0.5378     0.5255     0.0062    -0.0087    -0.0063 </r>
      <r>    15.6128     0.5387     0.5309     0.5164     0.0063    -0.0085    -0.0065 </r>
      <r>    15.6414     0.5288     0.5239     0.5070     0.0067    -0.0091    -0.0061 </r>
      <r>    15.6700     0.5182     0.5168     0.4975     0.0076    -0.0105    -0.0056 </r>
      <r>    15.6986     0.5079     0.5093     0.4883     0.0086    -0.0124    -0.0049 </r>
      <r>    15.7272     0.4990     0.5016     0.4797     0.0090    -0.0140    -0.0042 </r>
      <r>    15.7558     0.4914     0.4941     0.4724     0.0085    -0.0150    -0.0040 </r>
      <r>    15.7844     0.4843     0.4872     0.4666     0.0074    -0.0154    -0.0044 </r>
      <r>    15.8130     0.4763     0.4816     0.4617     0.0061    -0.0155    -0.0052 </r>
      <r>    15.8416     0.4667     0.4768     0.4564     0.0051    -0.0155    -0.0058 </r>
      <r>    15.8702     0.4562     0.4710     0.4493     0.0043    -0.0153    -0.0060 </r>
      <r>    15.8988     0.4458     0.4635     0.4403     0.0037    -0.0149    -0.0059 </r>
      <r>    15.9274     0.4364     0.4545     0.4305     0.0033    -0.0141    -0.0058 </r>
      <r>    15.9559     0.4280     0.4452     0.4216     0.0031    -0.0132    -0.0058 </r>
      <r>    15.9845     0.4213     0.4364     0.4145     0.0032    -0.0124    -0.0060 </r>
      <r>    16.0131     0.4164     0.4286     0.4089     0.0036    -0.0118    -0.0061 </r>
      <r>    16.0417     0.4126     0.4218     0.4036     0.0044    -0.0115    -0.0061 </r>
      <r>    16.0703     0.4085     0.4153     0.3976     0.0058    -0.0116    -0.0061 </r>
      <r>    16.0989     0.4035     0.4088     0.3909     0.0077    -0.0116    -0.0062 </r>
      <r>    16.1275     0.3977     0.4021     0.3845     0.0096    -0.0112    -0.0063 </r>
      <r>    16.1561     0.3921     0.3959     0.3793     0.0113    -0.0103    -0.0063 </r>
      <r>    16.1847     0.3869     0.3905     0.3757     0.0123    -0.0094    -0.0060 </r>
      <r>    16.2133     0.3818     0.3862     0.3734     0.0129    -0.0087    -0.0052 </r>
      <r>    16.2419     0.3769     0.3826     0.3718     0.0132    -0.0083    -0.0043 </r>
      <r>    16.2705     0.3723     0.3790     0.3701     0.0132    -0.0085    -0.0035 </r>
      <r>    16.2991     0.3680     0.3751     0.3678     0.0133    -0.0090    -0.0028 </r>
      <r>    16.3277     0.3635     0.3710     0.3650     0.0131    -0.0096    -0.0024 </r>
      <r>    16.3563     0.3590     0.3673     0.3615     0.0125    -0.0101    -0.0023 </r>
      <r>    16.3849     0.3544     0.3642     0.3572     0.0113    -0.0104    -0.0026 </r>
      <r>    16.4135     0.3496     0.3616     0.3523     0.0100    -0.0102    -0.0031 </r>
      <r>    16.4421     0.3442     0.3595     0.3472     0.0090    -0.0094    -0.0036 </r>
      <r>    16.4707     0.3384     0.3576     0.3429     0.0087    -0.0082    -0.0037 </r>
      <r>    16.4992     0.3331     0.3553     0.3397     0.0087    -0.0069    -0.0035 </r>
      <r>    16.5278     0.3290     0.3523     0.3373     0.0085    -0.0057    -0.0029 </r>
      <r>    16.5564     0.3264     0.3488     0.3355     0.0079    -0.0047    -0.0022 </r>
      <r>    16.5850     0.3254     0.3455     0.3341     0.0073    -0.0043    -0.0015 </r>
      <r>    16.6136     0.3259     0.3427     0.3330     0.0070    -0.0043    -0.0010 </r>
      <r>    16.6422     0.3269     0.3404     0.3313     0.0069    -0.0046    -0.0007 </r>
      <r>    16.6708     0.3272     0.3386     0.3283     0.0066    -0.0050    -0.0006 </r>
      <r>    16.6994     0.3258     0.3366     0.3240     0.0062    -0.0053    -0.0005 </r>
      <r>    16.7280     0.3229     0.3342     0.3191     0.0059    -0.0056    -0.0003 </r>
      <r>    16.7566     0.3193     0.3318     0.3142     0.0058    -0.0057     0.0001 </r>
      <r>    16.7852     0.3156     0.3299     0.3101     0.0060    -0.0058     0.0004 </r>
      <r>    16.8138     0.3126     0.3285     0.3068     0.0060    -0.0058     0.0007 </r>
      <r>    16.8424     0.3108     0.3275     0.3042     0.0055    -0.0055     0.0010 </r>
      <r>    16.8710     0.3101     0.3264     0.3027     0.0047    -0.0052     0.0015 </r>
      <r>    16.8996     0.3099     0.3248     0.3019     0.0038    -0.0050     0.0021 </r>
      <r>    16.9282     0.3093     0.3222     0.3014     0.0032    -0.0050     0.0026 </r>
      <r>    16.9568     0.3081     0.3184     0.3007     0.0032    -0.0053     0.0028 </r>
[...]
      <r>    80.7520     0.9748     0.9744     0.9746     0.0000     0.0000    -0.0000 </r>
      <r>    80.7806     0.9748     0.9745     0.9746     0.0000     0.0000    -0.0000 </r>
      <r>    80.8092     0.9748     0.9745     0.9747     0.0000     0.0000    -0.0000 </r>
      <r>    80.8377     0.9748     0.9745     0.9747     0.0000     0.0000    -0.0000 </r>
      <r>    80.8663     0.9749     0.9746     0.9747     0.0000     0.0000    -0.0000 </r>
      <r>    80.8949     0.9749     0.9746     0.9748     0.0000     0.0000    -0.0000 </r>
      <r>    80.9235     0.9749     0.9746     0.9748     0.0000     0.0000    -0.0000 </r>
      <r>    80.9521     0.9750     0.9746     0.9748     0.0000     0.0000    -0.0000 </r>
      <r>    80.9807     0.9750     0.9747     0.9748     0.0000     0.0000    -0.0000 </r>
      <r>    81.0093     0.9750     0.9747     0.9749     0.0000     0.0000    -0.0000 </r>
      <r>    81.0379     0.9750     0.9747     0.9749     0.0000     0.0000    -0.0000 </r>
      <r>    81.0665     0.9751     0.9747     0.9749     0.0000     0.0000    -0.0000 </r>
      <r>    81.0951     0.9751     0.9748     0.9749     0.0000     0.0000    -0.0000 </r>
      <r>    81.1237     0.9751     0.9748     0.9750     0.0000     0.0000    -0.0000 </r>
      <r>    81.1523     0.9751     0.9748     0.9750     0.0000     0.0000    -0.0000 </r>
      <r>    81.1809     0.9752     0.9749     0.9750     0.0000     0.0000    -0.0000 </r>
      <r>    81.2095     0.9752     0.9749     0.9751     0.0000     0.0000    -0.0000 </r>
      <r>    81.2381     0.9752     0.9749     0.9751     0.0000     0.0000    -0.0000 </r>
      <r>    81.2667     0.9752     0.9749     0.9751     0.0000     0.0000    -0.0000 </r>
      <r>    81.2953     0.9753     0.9750     0.9751     0.0000     0.0000    -0.0000 </r>
      <r>    81.3239     0.9753     0.9750     0.9752     0.0000     0.0000    -0.0000 </r>
      <r>    81.3525     0.9753     0.9750     0.9752     0.0000     0.0000    -0.0000 </r>
      <r>    81.3810     0.9754     0.9750     0.9752     0.0000     0.0000    -0.0000 </r>
      <r>    81.4096     0.9754     0.9751     0.9752     0.0000     0.0000    -0.0000 </r>
      <r>    81.4382     0.9754     0.9751     0.9753     0.0000     0.0000    -0.0000 </r>
      <r>    81.4668     0.9754     0.9751     0.9753     0.0000     0.0000    -0.0000 </r>
      <r>    81.4954     0.9755     0.9752     0.9753     0.0000     0.0000    -0.0000 </r>
      <r>    81.5240     0.9755     0.9752     0.9754     0.0000     0.0000    -0.0000 </r>
      <r>    81.5526     0.9755     0.9752     0.9754     0.0000     0.0000    -0.0000 </r>
      <r>    81.5812     0.9755     0.9752     0.9754     0.0000     0.0000    -0.0000 </r>
      <r>    81.6098     0.9756     0.9753     0.9754     0.0000     0.0000    -0.0000 </r>
      <r>    81.6384     0.9756     0.9753     0.9755     0.0000     0.0000    -0.0000 </r>
      <r>    81.6670     0.9756     0.9753     0.9755     0.0000     0.0000    -0.0000 </r>
      <r>    81.6956     0.9756     0.9753     0.9755     0.0000     0.0000    -0.0000 </r>
      <r>    81.7242     0.9757     0.9754     0.9755     0.0000     0.0000    -0.0000 </r>
      <r>    81.7528     0.9757     0.9754     0.9756     0.0000     0.0000    -0.0000 </r>
      <r>    81.7814     0.9757     0.9754     0.9756     0.0000     0.0000    -0.0000 </r>
      <r>    81.8100     0.9757     0.9754     0.9756     0.0000     0.0000    -0.0000 </r>
      <r>    81.8386     0.9758     0.9755     0.9756     0.0000     0.0000    -0.0000 </r>
      <r>    81.8672     0.9758     0.9755     0.9757     0.0000     0.0000    -0.0000 </r>
      <r>    81.8958     0.9758     0.9755     0.9757     0.0000     0.0000    -0.0000 </r>
      <r>    81.9244     0.9758     0.9755     0.9757     0.0000     0.0000    -0.0000 </r>
      <r>    81.9529     0.9759     0.9756     0.9757     0.0000     0.0000    -0.0000 </r>
      <r>    81.9815     0.9759     0.9756     0.9758     0.0000     0.0000    -0.0000 </r>
      <r>    82.0101     0.9759     0.9756     0.9758     0.0000     0.0000    -0.0000 </r>
      <r>    82.0387     0.9759     0.9756     0.9758     0.0000     0.0000    -0.0000 </r>
      <r>    82.0673     0.9760     0.9757     0.9758     0.0000     0.0000    -0.0000 </r>
      <r>    82.0959     0.9760     0.9757     0.9759     0.0000     0.0000    -0.0000 </r>
      <r>    82.1245     0.9760     0.9757     0.9759     0.0000     0.0000    -0.0000 </r>
      <r>    82.1531     0.9760     0.9757     0.9759     0.0000     0.0000    -0.0000 </r>
      <r>    82.1817     0.9761     0.9758     0.9759     0.0000     0.0000    -0.0000 </r>
      <r>    82.2103     0.9761     0.9758     0.9760     0.0000     0.0000    -0.0000 </r>
      <r>    82.2389     0.9761     0.9758     0.9760     0.0000     0.0000    -0.0000 </r>
      <r>    82.2675     0.9761     0.9758     0.9760     0.0000     0.0000    -0.0000 </r>
      <r>    82.2961     0.9762     0.9759     0.9760     0.0000     0.0000    -0.0000 </r>
      <r>    82.3247     0.9762     0.9759     0.9761     0.0000     0.0000    -0.0000 </r>
      <r>    82.3533     0.9762     0.9759     0.9761     0.0000     0.0000    -0.0000 </r>
      <r>    82.3819     0.9762     0.9759     0.9761     0.0000     0.0000    -0.0000 </r>
      <r>    82.4105     0.9763     0.9760     0.9761     0.0000     0.0000    -0.0000 </r>
      <r>    82.4391     0.9763     0.9760     0.9762     0.0000     0.0000    -0.0000 </r>
      <r>    82.4677     0.9763     0.9760     0.9762     0.0000     0.0000    -0.0000 </r>
      <r>    82.4962     0.9763     0.9760     0.9762     0.0000     0.0000    -0.0000 </r>
      <r>    82.5248     0.9764     0.9761     0.9762     0.0000     0.0000    -0.0000 </r>
      <r>    82.5534     0.9764     0.9761     0.9763     0.0000     0.0000    -0.0000 </r>
      <r>    82.5820     0.9764     0.9761     0.9763     0.0000     0.0000    -0.0000 </r>
      <r>    82.6106     0.9764     0.9761     0.9763     0.0000     0.0000    -0.0000 </r>
      <r>    82.6392     0.9765     0.9762     0.9763     0.0000     0.0000    -0.0000 </r>
      <r>    82.6678     0.9765     0.9762     0.9764     0.0000     0.0000    -0.0000 </r>
      <r>    82.6964     0.9765     0.9762     0.9764     0.0000     0.0000    -0.0000 </r>
      <r>    82.7250     0.9765     0.9762     0.9764     0.0000     0.0000    -0.0000 </r>
      <r>    82.7536     0.9766     0.9763     0.9764     0.0000     0.0000    -0.0000 </r>
      <r>    82.7822     0.9766     0.9763     0.9765     0.0000     0.0000    -0.0000 </r>
      <r>    82.8108     0.9766     0.9763     0.9765     0.0000     0.0000    -0.0000 </r>
      <r>    82.8394     0.9766     0.9763     0.9765     0.0000     0.0000    -0.0000 </r>
      <r>    82.8680     0.9767     0.9764     0.9765     0.0000     0.0000    -0.0000 </r>
      <r>    82.8966     0.9767     0.9764     0.9766     0.0000     0.0000    -0.0000 </r>
      <r>    82.9252     0.9767     0.9764     0.9766     0.0000     0.0000    -0.0000 </r>
      <r>    82.9538     0.9767     0.9764     0.9766     0.0000     0.0000    -0.0000 </r>
      <r>    82.9824     0.9767     0.9765     0.9766     0.0000     0.0000    -0.0000 </r>
      <r>    83.0110     0.9768     0.9765     0.9767     0.0000     0.0000    -0.0000 </r>
      <r>    83.0396     0.9768     0.9765     0.9767     0.0000     0.0000    -0.0000 </r>
      <r>    83.0681     0.9768     0.9765     0.9767     0.0000     0.0000    -0.0000 </r>
      <r>    83.0967     0.9768     0.9766     0.9767     0.0000     0.0000    -0.0000 </r>
      <r>    83.1253     0.9769     0.9766     0.9768     0.0000     0.0000    -0.0000 </r>
      <r>    83.1539     0.9769     0.9766     0.9768     0.0000     0.0000    -0.0000 </r>
      <r>    83.1825     0.9769     0.9766     0.9768     0.0000     0.0000    -0.0000 </r>
      <r>    83.2111     0.9769     0.9767     0.9768     0.0000     0.0000    -0.0000 </r>
      <r>    83.2397     0.9770     0.9767     0.9768     0.0000     0.0000    -0.0000 </r>
      <r>    83.2683     0.9770     0.9767     0.9769     0.0000     0.0000    -0.0000 </r>
      <r>    83.2969     0.9770     0.9767     0.9769     0.0000     0.0000    -0.0000 </r>
      <r>    83.3255     0.9770     0.9767     0.9769     0.0000     0.0000    -0.0000 </r>
      <r>    83.3541     0.9770     0.9768     0.9769     0.0000     0.0000    -0.0000 </r>
      <r>    83.3827     0.9771     0.9768     0.9770     0.0000     0.0000    -0.0000 </r>
      <r>    83.4113     0.9771     0.9768     0.9770     0.0000     0.0000    -0.0000 </r>
      <r>    83.4399     0.9771     0.9768     0.9770     0.0000     0.0000    -0.0000 </r>
      <r>    83.4685     0.9771     0.9769     0.9770     0.0000     0.0000    -0.0000 </r>
      <r>    83.4971     0.9772     0.9769     0.9771     0.0000     0.0000    -0.0000 </r>
      <r>    83.5257     0.9772     0.9769     0.9771     0.0000     0.0000    -0.0000 </r>
      <r>    83.5543     0.9772     0.9769     0.9771     0.0000     0.0000    -0.0000 </r>
      <r>    83.5829     0.9772     0.9770     0.9771     0.0000     0.0000    -0.0000 </r>
      <r>    83.6115     0.9773     0.9770     0.9771     0.0000     0.0000    -0.0000 </r>
      <r>    83.6400     0.9773     0.9770     0.9772     0.0000     0.0000    -0.0000 </r>
      <r>    83.6686     0.9773     0.9770     0.9772     0.0000     0.0000    -0.0000 </r>
      <r>    83.6972     0.9773     0.9770     0.9772     0.0000     0.0000    -0.0000 </r>
      <r>    83.7258     0.9773     0.9771     0.9772     0.0000     0.0000    -0.0000 </r>
      <r>    83.7544     0.9774     0.9771     0.9773     0.0000     0.0000    -0.0000 </r>
      <r>    83.7830     0.9774     0.9771     0.9773     0.0000     0.0000    -0.0000 </r>
      <r>    83.8116     0.9774     0.9771     0.9773     0.0000     0.0000    -0.0000 </r>
      <r>    83.8402     0.9774     0.9772     0.9773     0.0000     0.0000    -0.0000 </r>
      <r>    83.8688     0.9775     0.9772     0.9774     0.0000     0.0000    -0.0000 </r>
      <r>    83.8974     0.9775     0.9772     0.9774     0.0000     0.0000    -0.0000 </r>
      <r>    83.9260     0.9775     0.9772     0.9774     0.0000     0.0000    -0.0000 </r>
      <r>    83.9546     0.9775     0.9773     0.9774     0.0000     0.0000    -0.0000 </r>
      <r>    83.9832     0.9775     0.9773     0.9774     0.0000     0.0000    -0.0000 </r>
      <r>    84.0118     0.9776     0.9773     0.9775     0.0000     0.0000    -0.0000 </r>
      <r>    84.0404     0.9776     0.9773     0.9775     0.0000     0.0000    -0.0000 </r>
      <r>    84.0690     0.9776     0.9773     0.9775     0.0000     0.0000    -0.0000 </r>
      <r>    84.0976     0.9776     0.9774     0.9775     0.0000     0.0000    -0.0000 </r>
      <r>    84.1262     0.9777     0.9774     0.9776     0.0000     0.0000    -0.0000 </r>
      <r>    84.1548     0.9777     0.9774     0.9776     0.0000     0.0000    -0.0000 </r>
      <r>    84.1833     0.9777     0.9774     0.9776     0.0000     0.0000    -0.0000 </r>
      <r>    84.2119     0.9777     0.9775     0.9776     0.0000     0.0000    -0.0000 </r>
      <r>    84.2405     0.9777     0.9775     0.9776     0.0000     0.0000    -0.0000 </r>
      <r>    84.2691     0.9778     0.9775     0.9777     0.0000     0.0000    -0.0000 </r>
      <r>    84.2977     0.9778     0.9775     0.9777     0.0000     0.0000    -0.0000 </r>
      <r>    84.3263     0.9778     0.9775     0.9777     0.0000     0.0000    -0.0000 </r>
      <r>    84.3549     0.9778     0.9776     0.9777     0.0000     0.0000    -0.0000 </r>
      <r>    84.3835     0.9778     0.9776     0.9777     0.0000     0.0000    -0.0000 </r>
      <r>    84.4121     0.9779     0.9776     0.9778     0.0000     0.0000    -0.0000 </r>
      <r>    84.4407     0.9779     0.9776     0.9778     0.0000     0.0000    -0.0000 </r>
      <r>    84.4693     0.9779     0.9776     0.9778     0.0000     0.0000    -0.0000 </r>
      <r>    84.4979     0.9779     0.9777     0.9778     0.0000     0.0000    -0.0000 </r>
      <r>    84.5265     0.9780     0.9777     0.9779     0.0000     0.0000    -0.0000 </r>
      <r>    84.5551     0.9780     0.9777     0.9779     0.0000     0.0000    -0.0000 </r>
      <r>    84.5837     0.9780     0.9777     0.9779     0.0000     0.0000    -0.0000 </r>
      <r>    84.6123     0.9780     0.9778     0.9779     0.0000     0.0000    -0.0000 </r>
      <r>    84.6409     0.9780     0.9778     0.9779     0.0000     0.0000    -0.0000 </r>
      <r>    84.6695     0.9781     0.9778     0.9780     0.0000     0.0000    -0.0000 </r>
      <r>    84.6981     0.9781     0.9778     0.9780     0.0000     0.0000    -0.0000 </r>
      <r>    84.7267     0.9781     0.9778     0.9780     0.0000     0.0000    -0.0000 </r>
      <r>    84.7552     0.9781     0.9779     0.9780     0.0000     0.0000    -0.0000 </r>
      <r>    84.7838     0.9781     0.9779     0.9781     0.0000     0.0000    -0.0000 </r>
      <r>    84.8124     0.9782     0.9779     0.9781     0.0000     0.0000    -0.0000 </r>
      <r>    84.8410     0.9782     0.9779     0.9781     0.0000     0.0000    -0.0000 </r>
      <r>    84.8696     0.9782     0.9780     0.9781     0.0000     0.0000    -0.0000 </r>
      <r>    84.8982     0.9782     0.9780     0.9781     0.0000     0.0000    -0.0000 </r>
      <r>    84.9268     0.9782     0.9780     0.9782     0.0000     0.0000    -0.0000 </r>
      <r>    84.9554     0.9783     0.9780     0.9782     0.0000     0.0000    -0.0000 </r>
      <r>    84.9840     0.9783     0.9780     0.9782     0.0000     0.0000    -0.0000 </r>
      <r>    85.0126     0.9783     0.9781     0.9782     0.0000     0.0000    -0.0000 </r>
      <r>    85.0412     0.9783     0.9781     0.9782     0.0000     0.0000    -0.0000 </r>
      <r>    85.0698     0.9783     0.9781     0.9783     0.0000     0.0000    -0.0000 </r>
      <r>    85.0984     0.9784     0.9781     0.9783     0.0000     0.0000    -0.0000 </r>
      <r>    85.1270     0.9784     0.9781     0.9783     0.0000     0.0000    -0.0000 </r>
      <r>    85.1556     0.9784     0.9782     0.9783     0.0000     0.0000    -0.0000 </r>
      <r>    85.1842     0.9784     0.9782     0.9783     0.0000     0.0000    -0.0000 </r>
      <r>    85.2128     0.9785     0.9782     0.9784     0.0000     0.0000    -0.0000 </r>
      <r>    85.2414     0.9785     0.9782     0.9784     0.0000     0.0000    -0.0000 </r>
      <r>    85.2700     0.9785     0.9782     0.9784     0.0000     0.0000    -0.0000 </r>
      <r>    85.2985     0.9785     0.9783     0.9784     0.0000     0.0000    -0.0000 </r>
      <r>    85.3271     0.9785     0.9783     0.9784     0.0000     0.0000    -0.0000 </r>
      <r>    85.3557     0.9786     0.9783     0.9785     0.0000     0.0000    -0.0000 </r>
      <r>    85.3843     0.9786     0.9783     0.9785     0.0000     0.0000    -0.0000 </r>
      <r>    85.4129     0.9786     0.9783     0.9785     0.0000     0.0000    -0.0000 </r>
      <r>    85.4415     0.9786     0.9784     0.9785     0.0000     0.0000    -0.0000 </r>
      <r>    85.4701     0.9786     0.9784     0.9785     0.0000     0.0000    -0.0000 </r>
      <r>    85.4987     0.9787     0.9784     0.9786     0.0000     0.0000    -0.0000 </r>
      <r>    85.5273     0.9787     0.9784     0.9786     0.0000     0.0000    -0.0000 </r>
      <r>    85.5559     0.9787     0.9784     0.9786     0.0000     0.0000    -0.0000 </r>
      <r>    85.5845     0.9787     0.9785     0.9786     0.0000     0.0000    -0.0000 </r>
      <r>    85.6131     0.9787     0.9785     0.9787     0.0000     0.0000    -0.0000 </r>
      <r>    85.6417     0.9788     0.9785     0.9787     0.0000     0.0000    -0.0000 </r>
      <r>    85.6703     0.9788     0.9785     0.9787     0.0000     0.0000    -0.0000 </r>
      <r>    85.6989     0.9788     0.9785     0.9787     0.0000     0.0000    -0.0000 </r>
      <r>    85.7275     0.9788     0.9786     0.9787     0.0000     0.0000    -0.0000 </r>
      <r>    85.7561     0.9788     0.9786     0.9788     0.0000     0.0000    -0.0000 </r>
      <r>    85.7847     0.9789     0.9786     0.9788     0.0000     0.0000    -0.0000 </r>
     </set>
    </array>
   </real>
  </dielectricfunction>
  <dielectricfunction>
  </dielectricfunction>
 </calculation>
 <structure name="finalpos" >
  <crystal>
   <varray name="basis" >
    <v>       7.64737116       0.06111026      -0.03409147 </v>
    <v>      -0.15953263      12.51424662      -0.00199117 </v>
    <v>      -0.01832147       0.01017033       7.53658552 </v>
   </varray>
   <i name="volume">    721.32530946 </i>
   <varray name="rec_basis" >
    <v>       0.13075198       0.00166689       0.00031561 </v>
    <v>      -0.00063898       0.07990076      -0.00010938 </v>
    <v>       0.00059128       0.00002865       0.13268748 </v>
   </varray>
  </crystal>
  <varray name="positions" >
   <v>       0.00007698       0.50097424       0.00189610 </v>
   <v>       0.00007105       0.50097303       0.50190479 </v>
   <v>       0.50007302       0.00096764       0.00191598 </v>
   <v>       0.50006277       0.00097379       0.50191370 </v>
   <v>       0.23815176       0.24524455       0.00173457 </v>
   <v>       0.76198315       0.75669688       0.00207935 </v>
   <v>       0.73694653       0.75277142       0.50681740 </v>
   <v>       0.26317614       0.24916997       0.49702320 </v>
   <v>       0.68854883       0.28082745       0.49983839 </v>
   <v>       0.31157731       0.72112283       0.50403014 </v>
   <v>       0.25723781       0.74629544       0.00025027 </v>
   <v>       0.74289751       0.25564902       0.00358724 </v>
   <v>       0.08776433       0.35723680       0.45660614 </v>
   <v>       0.91238021       0.64471727       0.54718596 </v>
   <v>       0.01303343       0.79018231       0.00942065 </v>
   <v>       0.98710019       0.21175342       0.99451070 </v>
   <v>       0.48973167       0.28515483       0.01061302 </v>
   <v>       0.51040528       0.71680162       0.99314055 </v>
   <v>       0.17327300       0.39115751       0.04794653 </v>
   <v>       0.82687148       0.61078467       0.95586209 </v>
   <v>       0.77823552       0.42815038       0.48698502 </v>
   <v>       0.22191189       0.57379788       0.51684294 </v>
   <v>       0.19414555       0.59861741       0.97507643 </v>
   <v>       0.80600009       0.40332607       0.02875025 </v>
   <v>       0.68590155       0.90065605       0.04981013 </v>
   <v>       0.31424402       0.10128848       0.95401429 </v>
   <v>       0.30505829       0.09828061       0.54087538 </v>
   <v>       0.69507980       0.90366315       0.46294851 </v>
   <v>       0.34352743       0.87870892       0.47597048 </v>
   <v>       0.65660118       0.12323887       0.52788000 </v>
   <v>       0.67934785       0.10836687       0.97563917 </v>
   <v>       0.32078687       0.89358431       0.02819687 </v>
   <v>       0.99090535       0.53194621       0.25125516 </v>
   <v>       0.00923913       0.47000109       0.75255056 </v>
   <v>       0.48611687       0.03231592       0.25170520 </v>
   <v>       0.51403226       0.96962156       0.75212485 </v>
   <v>       0.22850258       0.20923813       0.24988714 </v>
   <v>       0.77173029       0.79272234       0.75393295 </v>
   <v>       0.76285404       0.24666742       0.26177011 </v>
   <v>       0.23720517       0.75528706       0.74206844 </v>
   <v>       0.78232104       0.73670548       0.25484706 </v>
   <v>       0.21769824       0.26521170       0.74898215 </v>
   <v>       0.24454189       0.72602677       0.25638305 </v>
   <v>       0.75568196       0.27590921       0.74745967 </v>
   <v>       0.53510949       0.68070495       0.52231303 </v>
   <v>       0.46506104       0.32125836       0.48165815 </v>
  </varray>
 </structure>
</modeling>
