<?xml version="1.0" encoding="ISO-8859-1"?>
<modeling>
 <generator>
  <i name="program" type="string">vasp </i>
  <i name="version" type="string">5.4.4.18Apr17-6-g9f103f2a35  </i>
  <i name="subversion" type="string">(build Jul 24 2019 14:16:20) complex            parallel </i>
  <i name="platform" type="string">IFC18.0.1.163_CrayMPICH7.7.6_MKL18.0.1.163 </i>
  <i name="date" type="string">2019 11 22 </i>
  <i name="time" type="string">10:27:31 </i>
 </generator>
 <incar>
  <i type="string" name="PREC">accurate</i>
  <i type="string" name="ALGO"> All</i>
  <i type="int" name="ISPIN">     2</i>
  <i type="int" name="ICHARG">     1</i>
  <i type="int" name="NELM">   100</i>
  <i type="int" name="IBRION">     2</i>
  <i name="EDIFF">      0.00060000</i>
  <i type="int" name="NSW">     0</i>
  <i type="int" name="ISIF">     3</i>
  <i name="ENCUT">    520.00000000</i>
  <v name="MAGMOM">     -0.00100000      0.00600000      0.01100000      0.00700000      0.00600000     -0.00100000      0.00700000      0.01100000      0.50000000      0.07300000      0.05400000      0.04500000</v>
  <i type="string" name="LREAL"> Auto</i>
  <i type="int" name="ISMEAR">     0</i>
  <i name="SIGMA">      0.05000000</i>
  <i type="logical" name="LWAVE"> F  </i>
  <i type="int" name="LORBIT">    11</i>
  <v type="int" name="KPOINT_BSE">    -1     0     0     0</v>
  <i type="int" name="NELM">   100</i>
  <i type="logical" name="LUSE_VDW"> T  </i>
  <i name="BPARAM">     15.70000000</i>
  <i type="string" name="METAGGA">SCAN</i>
 </incar>
 <structure name="primitive_cell" >
  <crystal>
   <varray name="basis" >
    <v>       4.70671600       0.00000000       0.00000000 </v>
    <v>       0.00000000       4.70671600       0.00000000 </v>
    <v>       0.00000000       0.00000000       4.70671600 </v>
   </varray>
   <i name="volume">    104.26870560 </i>
   <varray name="rec_basis" >
    <v>       0.21246236       0.00000000       0.00000000 </v>
    <v>       0.00000000       0.21246236       0.00000000 </v>
    <v>       0.00000000       0.00000000       0.21246236 </v>
   </varray>
  </crystal>
  <varray name="positions" >
   <v>       0.25240300       0.25240300       0.25240300 </v>
   <v>      -0.50000000      -0.50000000       0.00000000 </v>
   <v>       0.00000000      -0.50000000      -0.50000000 </v>
   <v>      -0.50000000       0.00000000      -0.50000000 </v>
   <v>       0.00000000       0.00000000       0.00000000 </v>
   <v>       0.25240300       0.25240300      -0.25240300 </v>
   <v>      -0.25240300       0.25240300       0.25240300 </v>
   <v>       0.25240300      -0.25240300       0.25240300 </v>
   <v>      -0.25240300      -0.25240300       0.25240300 </v>
   <v>      -0.25240300       0.25240300      -0.25240300 </v>
   <v>       0.25240300      -0.25240300      -0.25240300 </v>
   <v>      -0.25240300      -0.25240300      -0.25240300 </v>
  </varray>
 </structure>
 <varray name="primitive_index" >
  <v type="int" >        1 </v>
  <v type="int" >       10 </v>
  <v type="int" >       11 </v>
  <v type="int" >       12 </v>
  <v type="int" >        9 </v>
  <v type="int" >        5 </v>
  <v type="int" >        7 </v>
  <v type="int" >        8 </v>
  <v type="int" >        2 </v>
  <v type="int" >        3 </v>
  <v type="int" >        4 </v>
  <v type="int" >        6 </v>
 </varray>
 <kpoints>
  <generation param="Gamma">
   <v type="int" name="divisions">       4        4        4 </v>
   <v name="usershift">      0.00000000       0.00000000       0.00000000 </v>
   <v name="genvec1">      0.25000000       0.00000000       0.00000000 </v>
   <v name="genvec2">      0.00000000       0.25000000       0.00000000 </v>
   <v name="genvec3">      0.00000000       0.00000000       0.25000000 </v>
   <v name="shift">      0.00000000       0.00000000       0.00000000 </v>
  </generation>
  <varray name="kpointlist" >
   <v>       0.00000000       0.00000000       0.00000000 </v>
   <v>       0.25000000       0.00000000       0.00000000 </v>
   <v>       0.50000000       0.00000000       0.00000000 </v>
   <v>       0.00000000       0.25000000       0.00000000 </v>
   <v>       0.25000000       0.25000000       0.00000000 </v>
   <v>       0.50000000       0.25000000       0.00000000 </v>
   <v>      -0.25000000       0.25000000       0.00000000 </v>
   <v>       0.00000000       0.50000000       0.00000000 </v>
   <v>       0.25000000       0.50000000       0.00000000 </v>
   <v>       0.50000000       0.50000000       0.00000000 </v>
   <v>       0.00000000       0.00000000       0.25000000 </v>
   <v>       0.25000000       0.00000000       0.25000000 </v>
   <v>       0.50000000       0.00000000       0.25000000 </v>
   <v>      -0.25000000       0.00000000       0.25000000 </v>
   <v>       0.00000000       0.25000000       0.25000000 </v>
   <v>       0.25000000       0.25000000       0.25000000 </v>
   <v>       0.50000000       0.25000000       0.25000000 </v>
   <v>      -0.25000000       0.25000000       0.25000000 </v>
   <v>       0.00000000       0.50000000       0.25000000 </v>
   <v>       0.25000000       0.50000000       0.25000000 </v>
   <v>       0.50000000       0.50000000       0.25000000 </v>
   <v>      -0.25000000       0.50000000       0.25000000 </v>
   <v>       0.00000000      -0.25000000       0.25000000 </v>
   <v>       0.25000000      -0.25000000       0.25000000 </v>
   <v>       0.50000000      -0.25000000       0.25000000 </v>
   <v>      -0.25000000      -0.25000000       0.25000000 </v>
   <v>       0.00000000       0.00000000       0.50000000 </v>
   <v>       0.25000000       0.00000000       0.50000000 </v>
   <v>       0.50000000       0.00000000       0.50000000 </v>
   <v>       0.00000000       0.25000000       0.50000000 </v>
   <v>       0.25000000       0.25000000       0.50000000 </v>
   <v>       0.50000000       0.25000000       0.50000000 </v>
   <v>      -0.25000000       0.25000000       0.50000000 </v>
   <v>       0.00000000       0.50000000       0.50000000 </v>
   <v>       0.25000000       0.50000000       0.50000000 </v>
   <v>       0.50000000       0.50000000       0.50000000 </v>
  </varray>
  <varray name="weights" >
   <v>       0.01562500 </v>
   <v>       0.03125000 </v>
   <v>       0.01562500 </v>
   <v>       0.03125000 </v>
   <v>       0.03125000 </v>
   <v>       0.03125000 </v>
   <v>       0.03125000 </v>
   <v>       0.01562500 </v>
   <v>       0.03125000 </v>
   <v>       0.01562500 </v>
   <v>       0.03125000 </v>
   <v>       0.03125000 </v>
   <v>       0.03125000 </v>
   <v>       0.03125000 </v>
   <v>       0.03125000 </v>
   <v>       0.03125000 </v>
   <v>       0.03125000 </v>
   <v>       0.03125000 </v>
   <v>       0.03125000 </v>
   <v>       0.03125000 </v>
   <v>       0.03125000 </v>
   <v>       0.03125000 </v>
   <v>       0.03125000 </v>
   <v>       0.03125000 </v>
   <v>       0.03125000 </v>
   <v>       0.03125000 </v>
   <v>       0.01562500 </v>
   <v>       0.03125000 </v>
   <v>       0.01562500 </v>
   <v>       0.03125000 </v>
   <v>       0.03125000 </v>
   <v>       0.03125000 </v>
   <v>       0.03125000 </v>
   <v>       0.01562500 </v>
   <v>       0.03125000 </v>
   <v>       0.01562500 </v>
  </varray>
 </kpoints>
 <parameters>
  <separator name="general" >
   <i type="string" name="SYSTEM">unknown system</i>
   <i type="logical" name="LCOMPAT"> F  </i>
  </separator>
  <separator name="electronic" >
   <i type="string" name="PREC">accura</i>
   <i name="ENMAX">    520.00000000</i>
   <i name="ENAUG">    627.11200000</i>
   <i name="EDIFF">      0.00060000</i>
   <i type="int" name="IALGO">    58</i>
   <i type="int" name="IWAVPR">    10</i>
   <i type="int" name="NBANDS">    32</i>
   <i name="NELECT">     47.00000000</i>
   <i type="int" name="TURBO">     0</i>
   <i type="int" name="IRESTART">     0</i>
   <i type="int" name="NREBOOT">     0</i>
   <i type="int" name="NMIN">     0</i>
   <i name="EREF">      0.00000000</i>
   <separator name="electronic smearing" >
    <i type="int" name="ISMEAR">     0</i>
    <i name="SIGMA">      0.05000000</i>
    <i name="KSPACING">      0.50000000</i>
    <i type="logical" name="KGAMMA"> T  </i>
   </separator>
   <separator name="electronic projectors" >
    <i type="logical" name="LREAL"> T  </i>
    <v name="ROPT">     -0.00025000     -0.00025000     -0.00025000</v>
    <i type="int" name="LMAXPAW">  -100</i>
    <i type="int" name="LMAXMIX">     2</i>
    <i type="logical" name="NLSPLINE"> F  </i>
   </separator>
   <separator name="electronic startup" >
    <i type="int" name="ISTART">     0</i>
    <i type="int" name="ICHARG">     1</i>
    <i type="int" name="INIWAV">     1</i>
   </separator>
   <separator name="electronic spin" >
    <i type="int" name="ISPIN">     2</i>
    <i type="logical" name="LNONCOLLINEAR"> F  </i>
    <v name="MAGMOM">     -0.00100000      0.00600000      0.01100000      0.00700000      0.00600000     -0.00100000      0.00700000      0.01100000      0.50000000      0.07300000      0.05400000      0.04500000</v>
    <i name="NUPDOWN">     -1.00000000</i>
    <i type="logical" name="LSORBIT"> F  </i>
    <v name="SAXIS">      0.00000000      0.00000000      1.00000000</v>
    <i type="logical" name="LSPIRAL"> F  </i>
    <v name="QSPIRAL">      0.00000000      0.00000000      0.00000000</v>
    <i type="logical" name="LZEROZ"> F  </i>
   </separator>
   <separator name="electronic exchange-correlation" >
    <i type="logical" name="LASPH"> F  </i>
    <i type="logical" name="LMETAGGA"> F  </i>
   </separator>
   <separator name="electronic convergence" >
    <i type="int" name="NELM">   100</i>
    <i type="int" name="NELMDL">     0</i>
    <i type="int" name="NELMIN">     2</i>
    <i name="ENINI">    520.00000000</i>
    <separator name="electronic convergence detail" >
     <i type="logical" name="LDIAG"> T  </i>
     <i type="logical" name="LSUBROT"> F  </i>
     <i name="WEIMIN">      0.00000000</i>
     <i name="EBREAK">      0.00000469</i>
     <i name="DEPER">      0.30000000</i>
     <i type="int" name="NRMM">     4</i>
     <i name="TIME">      0.40000000</i>
    </separator>
   </separator>
   <separator name="electronic mixer" >
    <i name="AMIX">      0.40000000</i>
    <i name="BMIX">      1.00000000</i>
    <i name="AMIN">      0.10000000</i>
    <i name="AMIX_MAG">      1.60000000</i>
    <i name="BMIX_MAG">      1.00000000</i>
    <separator name="electronic mixer details" >
     <i type="int" name="IMIX">     4</i>
     <i type="logical" name="MIXFIRST"> F  </i>
     <i type="int" name="MAXMIX">   -45</i>
     <i name="WC">    100.00000000</i>
     <i type="int" name="INIMIX">     1</i>
     <i type="int" name="MIXPRE">     1</i>
     <i type="int" name="MREMOVE">     5</i>
    </separator>
   </separator>
   <separator name="electronic dipolcorrection" >
    <i type="logical" name="LDIPOL"> F  </i>
    <i type="logical" name="LMONO"> F  </i>
    <i type="int" name="IDIPOL">     0</i>
    <i name="EPSILON">      1.00000000</i>
    <v name="DIPOL">   -100.00000000   -100.00000000   -100.00000000</v>
    <i name="EFIELD">      0.00000000</i>
   </separator>
  </separator>
  <separator name="grids" >
   <i type="int" name="NGX">    36</i>
   <i type="int" name="NGY">    36</i>
   <i type="int" name="NGZ">    36</i>
   <i type="int" name="NGXF">    72</i>
   <i type="int" name="NGYF">    72</i>
   <i type="int" name="NGZF">    72</i>
   <i type="logical" name="ADDGRID"> F  </i>
  </separator>
  <separator name="ionic" >
   <i type="int" name="NSW">     0</i>
   <i type="int" name="IBRION">    -1</i>
   <i type="int" name="MDALGO">     0</i>
   <i type="int" name="ISIF">     3</i>
   <i name="PSTRESS">      0.00000000</i>
   <i name="EDIFFG">      0.00600000</i>
   <i type="int" name="NFREE">     1</i>
   <i name="POTIM">      0.50000000</i>
   <i name="SMASS">     -3.00000000</i>
   <i name="SCALEE">      1.00000000</i>
  </separator>
  <separator name="ionic md" >
   <i name="TEBEG">      0.00010000</i>
   <i name="TEEND">      0.00010000</i>
   <i type="int" name="NBLOCK">     1</i>
   <i type="int" name="KBLOCK">     1</i>
   <i type="int" name="NPACO">   256</i>
   <i name="APACO">     16.00000000</i>
  </separator>
  <separator name="symmetry" >
   <i type="int" name="ISYM">     2</i>
   <i name="SYMPREC">      0.00001000</i>
  </separator>
  <separator name="dos" >
   <i type="int" name="LORBIT">    11</i>
   <v name="RWIGS">     -1.00000000     -1.00000000     -1.00000000</v>
   <i type="int" name="NEDOS">   301</i>
   <i name="EMIN">     10.00000000</i>
   <i name="EMAX">    -10.00000000</i>
   <i name="EFERMI">      0.00000000</i>
  </separator>
  <separator name="writing" >
   <i type="int" name="NWRITE">     2</i>
   <i type="logical" name="LWAVE"> F  </i>
   <i type="logical" name="LDOWNSAMPLE"> F  </i>
   <i type="logical" name="LCHARG"> T  </i>
   <i type="logical" name="LPARD"> F  </i>
   <i type="logical" name="LVTOT"> F  </i>
   <i type="logical" name="LVHAR"> F  </i>
   <i type="logical" name="LELF"> F  </i>
   <i type="logical" name="LOPTICS"> F  </i>
   <v name="STM">      0.00000000      0.00000000      0.00000000      0.00000000      0.00000000      0.00000000      0.00000000</v>
  </separator>
  <separator name="performance" >
   <i type="int" name="NPAR">    32</i>
   <i type="int" name="NSIM">     4</i>
   <i type="int" name="NBLK">    -1</i>
   <i type="logical" name="LPLANE"> T  </i>
   <i type="logical" name="LSCALAPACK"> T  </i>
   <i type="logical" name="LSCAAWARE"> F  </i>
   <i type="logical" name="LSCALU"> F  </i>
   <i type="logical" name="LASYNC"> F  </i>
   <i type="logical" name="LORBITALREAL"> F  </i>
  </separator>
  <separator name="miscellaneous" >
   <i type="int" name="IDIOT">     3</i>
   <i type="int" name="ISPECIAL">     0</i>
   <i type="logical" name="LMUSIC"> F  </i>
   <v name="POMASS">      7.01000000     14.00100000     16.00000000</v>
   <v name="DARWINR">      0.00000000      0.00000000      0.00000000</v>
   <v name="DARWINV">      1.00000000      1.00000000      1.00000000</v>
   <i type="logical" name="LCORR"> T  </i>
  </separator>
  <i type="logical" name="GGA_COMPAT"> T  </i>
  <i type="logical" name="LBERRY"> F  </i>
  <i type="int" name="ICORELEVEL">     0</i>
  <i type="logical" name="LDAU"> F  </i>
  <i type="int" name="I_CONSTRAINED_M">     0</i>
  <separator name="electronic exchange-correlation" >
   <i type="string" name="GGA">--</i>
   <i type="int" name="VOSKOWN">     0</i>
   <i type="logical" name="LHFCALC"> F  </i>
   <i type="string" name="PRECFOCK"></i>
   <i type="logical" name="LSYMGRAD"> F  </i>
   <i type="logical" name="LHFONE"> F  </i>
   <i type="logical" name="LRHFCALC"> F  </i>
   <i type="logical" name="LTHOMAS"> F  </i>
   <i type="logical" name="LMODELHF"> F  </i>
   <i name="ENCUT4O">     -1.00000000</i>
   <i type="int" name="EXXOEP">     0</i>
   <i type="int" name="FOURORBIT">     0</i>
   <i name="AEXX">      0.00000000</i>
   <i name="HFALPHA">      0.00000000</i>
   <i name="MCALPHA">      0.00000000</i>
   <i name="ALDAX">      1.00000000</i>
   <i name="AGGAX">      1.00000000</i>
   <i name="ALDAC">      1.00000000</i>
   <i name="AGGAC">      1.00000000</i>
   <i type="int" name="NKREDX">     1</i>
   <i type="int" name="NKREDY">     1</i>
   <i type="int" name="NKREDZ">     1</i>
   <i type="logical" name="SHIFTRED"> F  </i>
   <i type="logical" name="ODDONLY"> F  </i>
   <i type="logical" name="EVENONLY"> F  </i>
   <i type="int" name="LMAXFOCK">     0</i>
   <i type="int" name="NMAXFOCKAE">     0</i>
   <i type="logical" name="LFOCKAEDFT"> F  </i>
   <i name="HFSCREEN">      0.00000000</i>
   <i name="HFSCREENC">      0.00000000</i>
   <i type="int" name="NBANDSGWLOW">     0</i>
  </separator>
  <separator name="vdW DFT" >
   <i type="logical" name="LUSE_VDW"> T  </i>
   <i name="Zab_VDW">     -0.84910000</i>
   <i name="PARAM1">      0.12340000</i>
   <i name="PARAM2">      1.00000000</i>
   <i name="PARAM3">      0.00000000</i>
  </separator>
  <separator name="model GW" >
   <i type="int" name="MODEL_GW">     0</i>
   <i name="MODEL_EPS0">      5.21343528</i>
   <i name="MODEL_ALPHA">      1.00000000</i>
  </separator>
  <separator name="linear response parameters" >
   <i type="logical" name="LEPSILON"> F  </i>
   <i type="logical" name="LRPA"> F  </i>
   <i type="logical" name="LNABLA"> F  </i>
   <i type="logical" name="LVEL"> F  </i>
   <i type="int" name="KINTER">     0</i>
   <i name="CSHIFT">      0.10000000</i>
   <i name="OMEGAMAX">     -1.00000000</i>
   <i name="DEG_THRESHOLD">      0.00200000</i>
   <i name="RTIME">     -0.10000000</i>
   <i name="WPLASMAI">      0.00000000</i>
   <v name="DFIELD">      0.00000000      0.00000000      0.00000000</v>
   <v name="WPLASMA">      0.00000000      0.00000000      0.00000000      0.00000000      0.00000000      0.00000000      0.00000000      0.00000000      0.00000000</v>
  </separator>
  <separator name="orbital magnetization" >
   <i type="logical" name="NUCIND"> F  </i>
   <v name="MAGPOS">      0.00000000      0.00000000      0.00000000</v>
   <i type="logical" name="LNICSALL"> T  </i>
   <i type="logical" name="ORBITALMAG"> F  </i>
   <i type="logical" name="LMAGBLOCH"> F  </i>
   <i type="logical" name="LCHIMAG"> F  </i>
   <i type="logical" name="LGAUGE"> T  </i>
   <i type="int" name="MAGATOM">     0</i>
   <v name="MAGDIPOL">      0.00000000      0.00000000      0.00000000</v>
   <v name="AVECCONST">      0.00000000      0.00000000      0.00000000</v>
  </separator>
  <separator name="response functions" >
   <i type="logical" name="LADDER"> F  </i>
   <i type="logical" name="LRPAFORCE"> F  </i>
   <i type="logical" name="LFXC"> F  </i>
   <i type="logical" name="LHARTREE"> T  </i>
   <i type="int" name="IBSE">     0</i>
   <v type="int" name="KPOINT">    -1     0     0     0</v>
   <i type="logical" name="LTCTE"> F  </i>
   <i type="logical" name="LTETE"> F  </i>
   <i type="logical" name="LTRIPLET"> F  </i>
   <i type="logical" name="LFXCEPS"> F  </i>
   <i type="logical" name="LFXHEG"> F  </i>
   <i type="int" name="NATURALO">     2</i>
   <i type="logical" name="L2ORDER"> F  </i>
   <i type="logical" name="LMP2LT"> F  </i>
   <i type="logical" name="LUSEW"> F  </i>
   <i name="ENCUTGW">     -2.00000000</i>
   <i name="ENCUTGWSOFT">     -2.00000000</i>
   <i name="ENCUTLF">     -1.00000000</i>
   <i type="int" name="LMAXMP2">    -1</i>
   <i name="SCISSOR">      0.00000000</i>
   <i type="int" name="NOMEGA">     0</i>
   <i type="int" name="NOMEGAR">     0</i>
   <i type="int" name="NBANDSGW">    -1</i>
   <i type="int" name="NBANDSO">    -1</i>
   <i type="int" name="NBANDSV">    -1</i>
   <i type="int" name="NELM">   100</i>
   <i type="int" name="NELMHF">     1</i>
   <i type="int" name="DIM">     3</i>
   <i type="int" name="ANTIRES">     0</i>
   <i name="OMEGAMAX">    -30.00000000</i>
   <i name="OMEGAMIN">    -30.00000000</i>
   <i name="OMEGATL">   -200.00000000</i>
   <i type="int" name="OMEGAGRID">   140</i>
   <i name="CSHIFT">     -0.10000000</i>
   <i type="logical" name="SELFENERGY"> F  </i>
   <i type="logical" name="LSPECTRAL"> F  </i>
   <i type="logical" name="LSPECTRALGW"> F  </i>
   <i type="logical" name="LSINGLES"> F  </i>
   <i type="logical" name="LFERMIGW"> F  </i>
   <i type="logical" name="ODDONLYGW"> F  </i>
   <i type="logical" name="EVENONLYGW"> F  </i>
   <i type="int" name="NKREDLFX">     1</i>
   <i type="int" name="NKREDLFY">     1</i>
   <i type="int" name="NKREDLFZ">     1</i>
   <i type="int" name="MAXMEM">  2800</i>
   <i type="int" name="TELESCOPE">     0</i>
   <i type="int" name="TAUPAR">     1</i>
   <i type="int" name="OMEGAPAR">    -1</i>
   <i name="LAMBDA">      1.00000000</i>
  </separator>
  <separator name="External order field" >
   <i name="OFIELD_KAPPA">      0.00000000</i>
   <v name="OFIELD_K">      0.00000000      0.00000000      0.00000000</v>
   <i name="OFIELD_Q6_NEAR">      0.00000000</i>
   <i name="OFIELD_Q6_FAR">      0.00000000</i>
   <i name="OFIELD_A">      0.00000000</i>
  </separator>
 </parameters>
 <atominfo>
  <atoms>      12 </atoms>
  <types>       3 </types>
  <array name="atoms" >
   <dimension dim="1">ion</dimension>
   <field type="string">element</field>
   <field type="int">atomtype</field>
   <set>
    <rc><c>Li</c><c>   1</c></rc>
    <rc><c>Li</c><c>   1</c></rc>
    <rc><c>Li</c><c>   1</c></rc>
    <rc><c>Li</c><c>   1</c></rc>
    <rc><c>Li</c><c>   1</c></rc>
    <rc><c>Li</c><c>   1</c></rc>
    <rc><c>Li</c><c>   1</c></rc>
    <rc><c>Li</c><c>   1</c></rc>
    <rc><c>N </c><c>   2</c></rc>
    <rc><c>O </c><c>   3</c></rc>
    <rc><c>O </c><c>   3</c></rc>
    <rc><c>O </c><c>   3</c></rc>
   </set>
  </array>
  <array name="atomtypes" >
   <dimension dim="1">type</dimension>
   <field type="int">atomspertype</field>
   <field type="string">element</field>
   <field>mass</field>
   <field>valence</field>
   <field type="string">pseudopotential</field>
   <set>
    <rc><c>   8</c><c>Li</c><c>      7.01000000</c><c>      3.00000000</c><c> PAW_PBE Li_sv 23Jan2001                </c></rc>
    <rc><c>   1</c><c>N </c><c>     14.00100000</c><c>      5.00000000</c><c> PAW_PBE N 08Apr2002                    </c></rc>
    <rc><c>   3</c><c>O </c><c>     16.00000000</c><c>      6.00000000</c><c> PAW_PBE O 08Apr2002                    </c></rc>
   </set>
  </array>
 </atominfo>
 <structure name="initialpos" >
  <crystal>
   <varray name="basis" >
    <v>       4.70671600       0.00000000       0.00000000 </v>
    <v>       0.00000000       4.70671600       0.00000000 </v>
    <v>       0.00000000       0.00000000       4.70671600 </v>
   </varray>
   <i name="volume">    104.26870560 </i>
   <varray name="rec_basis" >
    <v>       0.21246236       0.00000000       0.00000000 </v>
    <v>       0.00000000       0.21246236       0.00000000 </v>
    <v>       0.00000000       0.00000000       0.21246236 </v>
   </varray>
  </crystal>
  <varray name="positions" >
   <v>       0.25240300       0.25240300       0.25240300 </v>
   <v>       0.74759700       0.74759700       0.25240300 </v>
   <v>       0.74759700       0.25240300       0.74759700 </v>
   <v>       0.25240300       0.74759700       0.74759700 </v>
   <v>       0.25240300       0.25240300       0.74759700 </v>
   <v>       0.74759700       0.74759700       0.74759700 </v>
   <v>       0.74759700       0.25240300       0.25240300 </v>
   <v>       0.25240300       0.74759700       0.25240300 </v>
   <v>       0.00000000       0.00000000       0.00000000 </v>
   <v>       0.50000000       0.50000000       0.00000000 </v>
   <v>       0.00000000       0.50000000       0.50000000 </v>
   <v>       0.50000000       0.00000000       0.50000000 </v>
  </varray>
 </structure>
 <calculation>
  <scstep>
   <time name="total">    3.50    3.52</time>
   <energy>
    <i name="alphaZ">    140.67619190 </i>
    <i name="ewald">  -1892.18500156 </i>
    <i name="hartreedc">   -655.47129397 </i>
    <i name="XCdc">      0.00000000 </i>
    <i name="pawpsdc">   1606.63306081 </i>
    <i name="pawaedc">  -1717.94758642 </i>
    <i name="eentropy">     -0.00283879 </i>
    <i name="bandstr">   -188.39270309 </i>
    <i name="atom">   3183.88063983 </i>
    <i name="e_fr_energy">    477.19046872 </i>
    <i name="e_wo_entrp">    477.19330751 </i>
    <i name="e_0_energy">    477.19188812 </i>
   </energy>
  </scstep>
  <scstep>
   <time name="total">    4.15    4.16</time>
   <energy>
    <i name="e_fr_energy">    317.20963131 </i>
    <i name="e_wo_entrp">    317.21444370 </i>
    <i name="e_0_energy">    317.21203751 </i>
   </energy>
  </scstep>
  <scstep>
   <time name="total">    3.50    3.50</time>
   <energy>
    <i name="e_fr_energy">    313.86839993 </i>
    <i name="e_wo_entrp">    313.87536616 </i>
    <i name="e_0_energy">    313.87188305 </i>
   </energy>
  </scstep>
  <scstep>
   <time name="total">    5.19    5.19</time>
   <energy>
    <i name="e_fr_energy">    313.82794973 </i>
    <i name="e_wo_entrp">    313.83501742 </i>
    <i name="e_0_energy">    313.83148357 </i>
   </energy>
  </scstep>
  <scstep>
   <time name="total">    3.86    3.86</time>
   <energy>
    <i name="e_fr_energy">    313.82794381 </i>
    <i name="e_wo_entrp">    313.83501147 </i>
    <i name="e_0_energy">    313.83147764 </i>
   </energy>
  </scstep>
  <scstep>
   <time name="total">    4.16    4.16</time>
   <energy>
    <i name="e_fr_energy">     61.65867024 </i>
    <i name="e_wo_entrp">     61.67013869 </i>
    <i name="e_0_energy">     61.66440447 </i>
   </energy>
  </scstep>
  <scstep>
   <time name="total">    4.18    4.18</time>
   <energy>
    <i name="e_fr_energy">    -44.30237402 </i>
    <i name="e_wo_entrp">    -44.29261170 </i>
    <i name="e_0_energy">    -44.29749286 </i>
   </energy>
  </scstep>
  <scstep>
   <time name="total">    4.16    4.16</time>
   <energy>
    <i name="e_fr_energy">    -55.57221120 </i>
    <i name="e_wo_entrp">    -55.56491493 </i>
    <i name="e_0_energy">    -55.56856307 </i>
   </energy>
  </scstep>
  <scstep>
   <time name="total">    4.16    4.16</time>
   <energy>
    <i name="e_fr_energy">    -61.24949143 </i>
    <i name="e_wo_entrp">    -61.23875023 </i>
    <i name="e_0_energy">    -61.24412083 </i>
   </energy>
  </scstep>
  <scstep>
   <time name="total">    4.16    4.16</time>
   <energy>
    <i name="e_fr_energy">    -63.28927995 </i>
    <i name="e_wo_entrp">    -63.27744032 </i>
    <i name="e_0_energy">    -63.28336013 </i>
   </energy>
  </scstep>
  <scstep>
   <time name="total">    4.16    4.16</time>
   <energy>
    <i name="e_fr_energy">    -63.88096303 </i>
    <i name="e_wo_entrp">    -63.86953745 </i>
    <i name="e_0_energy">    -63.87525024 </i>
   </energy>
  </scstep>
  <scstep>
   <time name="total">    4.16    4.16</time>
   <energy>
    <i name="e_fr_energy">    -64.07873020 </i>
    <i name="e_wo_entrp">    -64.06741469 </i>
    <i name="e_0_energy">    -64.07307244 </i>
   </energy>
  </scstep>
  <scstep>
   <time name="total">    4.16    4.16</time>
   <energy>
    <i name="e_fr_energy">    -64.14667612 </i>
    <i name="e_wo_entrp">    -64.13549002 </i>
    <i name="e_0_energy">    -64.14108307 </i>
   </energy>
  </scstep>
  <scstep>
   <time name="total">    4.18    4.18</time>
   <energy>
    <i name="e_fr_energy">    -64.16278036 </i>
    <i name="e_wo_entrp">    -64.15186336 </i>
    <i name="e_0_energy">    -64.15732186 </i>
   </energy>
  </scstep>
  <scstep>
   <time name="total">    4.16    4.16</time>
   <energy>
    <i name="e_fr_energy">    -64.16683725 </i>
    <i name="e_wo_entrp">    -64.15606827 </i>
    <i name="e_0_energy">    -64.16145276 </i>
   </energy>
  </scstep>
  <scstep>
   <time name="total">    4.17    4.17</time>
   <energy>
    <i name="e_fr_energy">    -64.16786737 </i>
    <i name="e_wo_entrp">    -64.15720096 </i>
    <i name="e_0_energy">    -64.16253416 </i>
   </energy>
  </scstep>
  <scstep>
   <time name="total">    4.72    4.72</time>
   <energy>
    <i name="alphaZ">    140.67619190 </i>
    <i name="ewald">  -1892.18500156 </i>
    <i name="hartreedc">   -657.27665865 </i>
    <i name="XCdc">    150.68440851 </i>
    <i name="pawpsdc">   1609.04083924 </i>
    <i name="pawaedc">  -1720.25513309 </i>
    <i name="eentropy">     -0.01062017 </i>
    <i name="bandstr">   -878.72297329 </i>
    <i name="atom">   3183.88063983 </i>
    <i name="e_fr_energy">    -64.16835351 </i>
    <i name="e_wo_entrp">    -64.15773333 </i>
    <i name="e_0_energy">    -64.16304342 </i>
   </energy>
  </scstep>
  <structure>
   <crystal>
    <varray name="basis" >
     <v>       4.70671600       0.00000000       0.00000000 </v>
     <v>       0.00000000       4.70671600       0.00000000 </v>
     <v>       0.00000000       0.00000000       4.70671600 </v>
    </varray>
    <i name="volume">    104.26870560 </i>
    <varray name="rec_basis" >
     <v>       0.21246236       0.00000000       0.00000000 </v>
     <v>       0.00000000       0.21246236       0.00000000 </v>
     <v>       0.00000000       0.00000000       0.21246236 </v>
    </varray>
   </crystal>
   <varray name="positions" >
    <v>       0.25240300       0.25240300       0.25240300 </v>
    <v>       0.74759700       0.74759700       0.25240300 </v>
    <v>       0.74759700       0.25240300       0.74759700 </v>
    <v>       0.25240300       0.74759700       0.74759700 </v>
    <v>       0.25240300       0.25240300       0.74759700 </v>
    <v>       0.74759700       0.74759700       0.74759700 </v>
    <v>       0.74759700       0.25240300       0.25240300 </v>
    <v>       0.25240300       0.74759700       0.25240300 </v>
    <v>       0.00000000       0.00000000       0.00000000 </v>
    <v>       0.50000000       0.50000000       0.00000000 </v>
    <v>       0.00000000       0.50000000       0.50000000 </v>
    <v>       0.50000000       0.00000000       0.50000000 </v>
   </varray>
  </structure>
  <varray name="forces" >
   <v>       0.03767986       0.03818288       0.03809814 </v>
   <v>      -0.03765864      -0.03818614       0.03815567 </v>
   <v>      -0.03771339       0.03816172      -0.03836511 </v>
   <v>       0.03773988      -0.03816442      -0.03840085 </v>
   <v>       0.03765864       0.03818614      -0.03815567 </v>
   <v>      -0.03767986      -0.03818288      -0.03809814 </v>
   <v>      -0.03773988       0.03816442       0.03840085 </v>
   <v>       0.03771339      -0.03816172       0.03836511 </v>
   <v>       0.00000000      -0.00000000      -0.00000000 </v>
   <v>      -0.00000000      -0.00000000      -0.00000000 </v>
   <v>       0.00000000      -0.00000000      -0.00000000 </v>
   <v>      -0.00000000      -0.00000000      -0.00000000 </v>
  </varray>
  <varray name="stress" >
   <v>     -29.09125470       0.02472410       0.00076282 </v>
   <v>       0.02472208     -29.02747815      -0.00758875 </v>
   <v>       0.00076352      -0.00758914     -29.02894056 </v>
  </varray>
  <energy>
   <i name="e_fr_energy">    -64.16835351 </i>
   <i name="e_wo_entrp">    -64.16304342 </i>
   <i name="e_0_energy">     -0.01062017 </i>
  </energy>
  <time name="totalsc">   78.95   79.37</time>
  <eigenvalues>
   <array>
    <dimension dim="1">band</dimension>
    <dimension dim="2">kpoint</dimension>
    <dimension dim="3">spin</dimension>
    <field>eigene</field>
    <field>occ</field>
    <set>
     <set comment="spin 1">
      <set comment="kpoint 1">
       <r>  -44.7920    1.0000 </r>
       <r>  -44.6860    1.0000 </r>
       <r>  -44.6858    1.0000 </r>
       <r>  -44.6855    1.0000 </r>
       <r>  -44.5976    1.0000 </r>
       <r>  -44.5974    1.0000 </r>
       <r>  -44.5972    1.0000 </r>
       <r>  -44.5206    1.0000 </r>
       <r>  -17.1836    1.0000 </r>
       <r>  -17.0087    1.0000 </r>
       <r>  -17.0082    1.0000 </r>
       <r>  -12.7915    1.0000 </r>
       <r>   -2.3139    1.0000 </r>
       <r>   -2.3139    1.0000 </r>
       <r>   -2.3138    1.0000 </r>
       <r>   -2.0762    1.0000 </r>
       <r>   -2.0759    1.0000 </r>
       <r>   -2.0759    1.0000 </r>
       <r>   -1.7439    1.0000 </r>
       <r>   -1.7433    1.0000 </r>
       <r>   -1.7432    1.0000 </r>
       <r>   -0.3752    1.0000 </r>
       <r>   -0.3742    1.0000 </r>
       <r>   -0.3740    1.0000 </r>
       <r>    4.6161    0.0000 </r>
       <r>    4.8815    0.0000 </r>
       <r>    4.8819    0.0000 </r>
       <r>    5.5975    0.0000 </r>
       <r>   11.8275    0.0000 </r>
       <r>   11.8275    0.0000 </r>
       <r>   11.8277    0.0000 </r>
       <r>   13.3834    0.0000 </r>
      </set>
      <set comment="kpoint 2">
       <r>  -44.7767    1.0000 </r>
       <r>  -44.7014    1.0000 </r>
       <r>  -44.6731    1.0000 </r>
       <r>  -44.6730    1.0000 </r>
       <r>  -44.6104    1.0000 </r>
       <r>  -44.6103    1.0000 </r>
       <r>  -44.5863    1.0000 </r>
       <r>  -44.5318    1.0000 </r>
       <r>  -17.1595    1.0000 </r>
       <r>  -17.0285    1.0000 </r>
       <r>  -17.0047    1.0000 </r>
       <r>  -12.7881    1.0000 </r>
       <r>   -2.2781    1.0000 </r>
       <r>   -2.2773    1.0000 </r>
       <r>   -2.2773    1.0000 </r>
       <r>   -2.2648    1.0000 </r>
       <r>   -2.0322    1.0000 </r>
       <r>   -2.0321    1.0000 </r>
       <r>   -1.8815    1.0000 </r>
       <r>   -1.6782    1.0000 </r>
       <r>   -1.6782    1.0000 </r>
       <r>   -0.7819    1.0000 </r>
       <r>   -0.5676    1.0000 </r>
       <r>   -0.5674    1.0000 </r>
       <r>    5.1748    0.0000 </r>
       <r>    5.5518    0.0000 </r>
       <r>    5.7244    0.0000 </r>
       <r>    6.2482    0.0000 </r>
       <r>   11.9025    0.0000 </r>
       <r>   11.9748    0.0000 </r>
       <r>   11.9748    0.0000 </r>
       <r>   12.2413    0.0000 </r>
      </set>
      <set comment="kpoint 3">
       <r>  -44.7431    1.0000 </r>
       <r>  -44.7351    1.0000 </r>
       <r>  -44.6452    1.0000 </r>
       <r>  -44.6451    1.0000 </r>
       <r>  -44.6383    1.0000 </r>
       <r>  -44.6382    1.0000 </r>
       <r>  -44.5623    1.0000 </r>
       <r>  -44.5559    1.0000 </r>
       <r>  -17.1223    1.0000 </r>
       <r>  -17.0623    1.0000 </r>
       <r>  -17.0003    1.0000 </r>
       <r>  -12.7846    1.0000 </r>
       <r>   -2.4357    1.0000 </r>
       <r>   -2.3430    1.0000 </r>
       <r>   -2.2372    1.0000 </r>
       <r>   -2.2372    1.0000 </r>
       <r>   -2.0185    1.0000 </r>
       <r>   -2.0184    1.0000 </r>
       <r>   -1.7537    1.0000 </r>
       <r>   -1.5202    1.0000 </r>
       <r>   -1.5202    1.0000 </r>
       <r>   -1.2960    1.0000 </r>
       <r>   -0.8267    1.0000 </r>
       <r>   -0.8264    1.0000 </r>
       <r>    5.7633    0.0000 </r>
       <r>    6.2225    0.0000 </r>
       <r>    6.9456    0.0000 </r>
       <r>    7.3404    0.0000 </r>
       <r>   10.2391    0.0000 </r>
       <r>   10.6555    0.0000 </r>
       <r>   12.3103    0.0000 </r>
       <r>   12.3118    0.0000 </r>
      </set>
      <set comment="kpoint 4">
       <r>  -44.7767    1.0000 </r>
       <r>  -44.7013    1.0000 </r>
       <r>  -44.6730    1.0000 </r>
       <r>  -44.6730    1.0000 </r>
       <r>  -44.6103    1.0000 </r>
       <r>  -44.6103    1.0000 </r>
       <r>  -44.5863    1.0000 </r>
       <r>  -44.5318    1.0000 </r>
       <r>  -17.1594    1.0000 </r>
       <r>  -17.0290    1.0000 </r>
       <r>  -17.0043    1.0000 </r>
       <r>  -12.7881    1.0000 </r>
       <r>   -2.2785    1.0000 </r>
       <r>   -2.2771    1.0000 </r>
       <r>   -2.2770    1.0000 </r>
       <r>   -2.2646    1.0000 </r>
       <r>   -2.0326    1.0000 </r>
       <r>   -2.0325    1.0000 </r>
       <r>   -1.8809    1.0000 </r>
       <r>   -1.6784    1.0000 </r>
       <r>   -1.6780    1.0000 </r>
       <r>   -0.7811    1.0000 </r>
       <r>   -0.5685    1.0000 </r>
       <r>   -0.5675    1.0000 </r>
       <r>    5.1749    0.0000 </r>
       <r>    5.5517    0.0000 </r>
       <r>    5.7241    0.0000 </r>
       <r>    6.2485    0.0000 </r>
       <r>   11.9027    0.0000 </r>
       <r>   11.9748    0.0000 </r>
       <r>   11.9749    0.0000 </r>
       <r>   12.2411    0.0000 </r>
      </set>
      <set comment="kpoint 5">
       <r>  -44.7617    1.0000 </r>
       <r>  -44.6884    1.0000 </r>
       <r>  -44.6879    1.0000 </r>
       <r>  -44.6605    1.0000 </r>
       <r>  -44.6236    1.0000 </r>
       <r>  -44.5991    1.0000 </r>
       <r>  -44.5988    1.0000 </r>
       <r>  -44.5432    1.0000 </r>
       <r>  -17.1374    1.0000 </r>
       <r>  -17.0321    1.0000 </r>
       <r>  -17.0146    1.0000 </r>
       <r>  -12.7833    1.0000 </r>
       <r>   -2.6117    1.0000 </r>
       <r>   -2.5282    1.0000 </r>
       <r>   -2.3459    1.0000 </r>
       <r>   -2.2167    1.0000 </r>
       <r>   -1.9656    1.0000 </r>
       <r>   -1.7897    1.0000 </r>
       <r>   -1.7414    1.0000 </r>
       <r>   -1.6882    1.0000 </r>
       <r>   -1.6324    1.0000 </r>
       <r>   -1.0651    1.0000 </r>
       <r>   -0.7221    1.0000 </r>
       <r>   -0.4709    1.0000 </r>
       <r>    5.7640    0.0000 </r>
       <r>    6.2630    0.0000 </r>
       <r>    6.2909    0.0000 </r>
       <r>    6.7735    0.0000 </r>
       <r>   11.5913    0.0000 </r>
       <r>   11.6367    0.0000 </r>
       <r>   12.1342    0.0000 </r>
       <r>   12.6760    0.0000 </r>
      </set>
      <set comment="kpoint 6">
       <r>  -44.7289    1.0000 </r>
       <r>  -44.7211    1.0000 </r>
       <r>  -44.6595    1.0000 </r>
       <r>  -44.6524    1.0000 </r>
       <r>  -44.6332    1.0000 </r>
       <r>  -44.6264    1.0000 </r>
       <r>  -44.5744    1.0000 </r>
       <r>  -44.5679    1.0000 </r>
       <r>  -17.1018    1.0000 </r>
       <r>  -17.0588    1.0000 </r>
       <r>  -17.0156    1.0000 </r>
       <r>  -12.7787    1.0000 </r>
       <r>   -2.7760    1.0000 </r>
       <r>   -2.7177    1.0000 </r>
       <r>   -2.2279    1.0000 </r>
       <r>   -2.2016    1.0000 </r>
       <r>   -2.1384    1.0000 </r>
       <r>   -1.9435    1.0000 </r>
       <r>   -1.6291    1.0000 </r>
       <r>   -1.5954    1.0000 </r>
       <r>   -1.5319    1.0000 </r>
       <r>   -0.9188    1.0000 </r>
       <r>   -0.8355    1.0000 </r>
       <r>   -0.6989    1.0000 </r>
       <r>    6.3865    0.0000 </r>
       <r>    6.9069    0.0000 </r>
       <r>    7.4000    0.0000 </r>
       <r>    7.6764    0.0000 </r>
       <r>   10.0815    0.0000 </r>
       <r>   10.5099    0.0000 </r>
       <r>   11.2184    0.0000 </r>
       <r>   11.7645    0.0000 </r>
      </set>
      <set comment="kpoint 7">
       <r>  -44.7617    1.0000 </r>
       <r>  -44.6883    1.0000 </r>
       <r>  -44.6880    1.0000 </r>
       <r>  -44.6605    1.0000 </r>
       <r>  -44.6236    1.0000 </r>
       <r>  -44.5992    1.0000 </r>
       <r>  -44.5987    1.0000 </r>
       <r>  -44.5432    1.0000 </r>
       <r>  -17.1374    1.0000 </r>
       <r>  -17.0321    1.0000 </r>
       <r>  -17.0146    1.0000 </r>
       <r>  -12.7833    1.0000 </r>
       <r>   -2.6118    1.0000 </r>
       <r>   -2.5283    1.0000 </r>
       <r>   -2.3455    1.0000 </r>
       <r>   -2.2167    1.0000 </r>
       <r>   -1.9656    1.0000 </r>
       <r>   -1.7897    1.0000 </r>
       <r>   -1.7415    1.0000 </r>
       <r>   -1.6882    1.0000 </r>
       <r>   -1.6321    1.0000 </r>
       <r>   -1.0663    1.0000 </r>
       <r>   -0.7221    1.0000 </r>
       <r>   -0.4701    1.0000 </r>
       <r>    5.7640    0.0000 </r>
       <r>    6.2631    0.0000 </r>
       <r>    6.2909    0.0000 </r>
       <r>    6.7734    0.0000 </r>
       <r>   11.5826    0.0000 </r>
       <r>   11.6326    0.0000 </r>
       <r>   12.1341    0.0000 </r>
       <r>   12.6760    0.0000 </r>
      </set>
      <set comment="kpoint 8">
       <r>  -44.7431    1.0000 </r>
       <r>  -44.7351    1.0000 </r>
       <r>  -44.6452    1.0000 </r>
       <r>  -44.6452    1.0000 </r>
       <r>  -44.6383    1.0000 </r>
       <r>  -44.6383    1.0000 </r>
       <r>  -44.5623    1.0000 </r>
       <r>  -44.5559    1.0000 </r>
       <r>  -17.1219    1.0000 </r>
       <r>  -17.0630    1.0000 </r>
       <r>  -16.9999    1.0000 </r>
       <r>  -12.7846    1.0000 </r>
       <r>   -2.4355    1.0000 </r>
       <r>   -2.3433    1.0000 </r>
       <r>   -2.2368    1.0000 </r>
       <r>   -2.2368    1.0000 </r>
       <r>   -2.0192    1.0000 </r>
       <r>   -2.0191    1.0000 </r>
       <r>   -1.7534    1.0000 </r>
       <r>   -1.5198    1.0000 </r>
       <r>   -1.5197    1.0000 </r>
       <r>   -1.2949    1.0000 </r>
       <r>   -0.8278    1.0000 </r>
       <r>   -0.8266    1.0000 </r>
       <r>    5.7634    0.0000 </r>
       <r>    6.2222    0.0000 </r>
       <r>    6.9454    0.0000 </r>
       <r>    7.3409    0.0000 </r>
       <r>   10.2391    0.0000 </r>
       <r>   10.6556    0.0000 </r>
       <r>   12.3103    0.0000 </r>
       <r>   12.3106    0.0000 </r>
      </set>
      <set comment="kpoint 9">
       <r>  -44.7289    1.0000 </r>
       <r>  -44.7211    1.0000 </r>
       <r>  -44.6595    1.0000 </r>
       <r>  -44.6524    1.0000 </r>
       <r>  -44.6332    1.0000 </r>
       <r>  -44.6264    1.0000 </r>
       <r>  -44.5744    1.0000 </r>
       <r>  -44.5679    1.0000 </r>
       <r>  -17.1015    1.0000 </r>
       <r>  -17.0595    1.0000 </r>
       <r>  -17.0152    1.0000 </r>
       <r>  -12.7787    1.0000 </r>
       <r>   -2.7759    1.0000 </r>
       <r>   -2.7178    1.0000 </r>
       <r>   -2.2276    1.0000 </r>
       <r>   -2.2018    1.0000 </r>
       <r>   -2.1381    1.0000 </r>
       <r>   -1.9442    1.0000 </r>
       <r>   -1.6287    1.0000 </r>
       <r>   -1.5951    1.0000 </r>
       <r>   -1.5321    1.0000 </r>
       <r>   -0.9189    1.0000 </r>
       <r>   -0.8347    1.0000 </r>
       <r>   -0.6999    1.0000 </r>
       <r>    6.3866    0.0000 </r>
       <r>    6.9066    0.0000 </r>
       <r>    7.3997    0.0000 </r>
       <r>    7.6769    0.0000 </r>
       <r>   10.0815    0.0000 </r>
       <r>   10.5097    0.0000 </r>
       <r>   11.2185    0.0000 </r>
       <r>   11.7640    0.0000 </r>
      </set>
      <set comment="kpoint 10">
       <r>  -44.6980    1.0000 </r>
       <r>  -44.6909    1.0000 </r>
       <r>  -44.6904    1.0000 </r>
       <r>  -44.6830    1.0000 </r>
       <r>  -44.6072    1.0000 </r>
       <r>  -44.6007    1.0000 </r>
       <r>  -44.6003    1.0000 </r>
       <r>  -44.5939    1.0000 </r>
       <r>  -17.0563    1.0000 </r>
       <r>  -17.0562    1.0000 </r>
       <r>  -17.0555    1.0000 </r>
       <r>  -12.7728    1.0000 </r>
       <r>   -2.8884    1.0000 </r>
       <r>   -2.7529    1.0000 </r>
       <r>   -2.6113    1.0000 </r>
       <r>   -2.6106    1.0000 </r>
       <r>   -1.9245    1.0000 </r>
       <r>   -1.8532    1.0000 </r>
       <r>   -1.8524    1.0000 </r>
       <r>   -1.3161    1.0000 </r>
       <r>   -1.2410    1.0000 </r>
       <r>   -1.0272    1.0000 </r>
       <r>   -0.6551    1.0000 </r>
       <r>   -0.6537    1.0000 </r>
       <r>    7.3027    0.0000 </r>
       <r>    7.8346    0.0000 </r>
       <r>    8.0394    0.0000 </r>
       <r>    8.0400    0.0000 </r>
       <r>    9.9673    0.0000 </r>
       <r>   10.0778    0.0000 </r>
       <r>   10.0780    0.0000 </r>
       <r>   13.2481    0.0000 </r>
      </set>
      <set comment="kpoint 11">
       <r>  -44.7767    1.0000 </r>
       <r>  -44.7013    1.0000 </r>
       <r>  -44.6732    1.0000 </r>
       <r>  -44.6728    1.0000 </r>
       <r>  -44.6106    1.0000 </r>
       <r>  -44.6101    1.0000 </r>
       <r>  -44.5863    1.0000 </r>
       <r>  -44.5318    1.0000 </r>
       <r>  -17.1594    1.0000 </r>
       <r>  -17.0290    1.0000 </r>
       <r>  -17.0043    1.0000 </r>
       <r>  -12.7881    1.0000 </r>
       <r>   -2.2785    1.0000 </r>
       <r>   -2.2772    1.0000 </r>
       <r>   -2.2770    1.0000 </r>
       <r>   -2.2646    1.0000 </r>
       <r>   -2.0326    1.0000 </r>
       <r>   -2.0324    1.0000 </r>
       <r>   -1.8809    1.0000 </r>
       <r>   -1.6785    1.0000 </r>
       <r>   -1.6779    1.0000 </r>
       <r>   -0.7810    1.0000 </r>
       <r>   -0.5687    1.0000 </r>
       <r>   -0.5674    1.0000 </r>
       <r>    5.1749    0.0000 </r>
       <r>    5.5517    0.0000 </r>
       <r>    5.7241    0.0000 </r>
       <r>    6.2486    0.0000 </r>
       <r>   11.9027    0.0000 </r>
       <r>   11.9748    0.0000 </r>
       <r>   11.9750    0.0000 </r>
       <r>   12.2411    0.0000 </r>
      </set>
      <set comment="kpoint 12">
       <r>  -44.7617    1.0000 </r>
       <r>  -44.6882    1.0000 </r>
       <r>  -44.6881    1.0000 </r>
       <r>  -44.6605    1.0000 </r>
       <r>  -44.6236    1.0000 </r>
       <r>  -44.5990    1.0000 </r>
       <r>  -44.5989    1.0000 </r>
       <r>  -44.5432    1.0000 </r>
       <r>  -17.1374    1.0000 </r>
       <r>  -17.0321    1.0000 </r>
       <r>  -17.0147    1.0000 </r>
       <r>  -12.7833    1.0000 </r>
       <r>   -2.6118    1.0000 </r>
       <r>   -2.5283    1.0000 </r>
       <r>   -2.3457    1.0000 </r>
       <r>   -2.2167    1.0000 </r>
       <r>   -1.9656    1.0000 </r>
       <r>   -1.7897    1.0000 </r>
       <r>   -1.7415    1.0000 </r>
       <r>   -1.6883    1.0000 </r>
       <r>   -1.6322    1.0000 </r>
       <r>   -1.0656    1.0000 </r>
       <r>   -0.7222    1.0000 </r>
       <r>   -0.4705    1.0000 </r>
       <r>    5.7640    0.0000 </r>
       <r>    6.2630    0.0000 </r>
       <r>    6.2908    0.0000 </r>
       <r>    6.7735    0.0000 </r>
       <r>   11.5913    0.0000 </r>
       <r>   11.6300    0.0000 </r>
       <r>   12.1338    0.0000 </r>
       <r>   12.6748    0.0000 </r>
      </set>
      <set comment="kpoint 13">
       <r>  -44.7289    1.0000 </r>
       <r>  -44.7211    1.0000 </r>
       <r>  -44.6595    1.0000 </r>
       <r>  -44.6524    1.0000 </r>
       <r>  -44.6332    1.0000 </r>
       <r>  -44.6264    1.0000 </r>
       <r>  -44.5744    1.0000 </r>
       <r>  -44.5679    1.0000 </r>
       <r>  -17.1018    1.0000 </r>
       <r>  -17.0588    1.0000 </r>
       <r>  -17.0156    1.0000 </r>
       <r>  -12.7787    1.0000 </r>
       <r>   -2.7760    1.0000 </r>
       <r>   -2.7177    1.0000 </r>
       <r>   -2.2279    1.0000 </r>
       <r>   -2.2016    1.0000 </r>
       <r>   -2.1384    1.0000 </r>
       <r>   -1.9435    1.0000 </r>
       <r>   -1.6291    1.0000 </r>
       <r>   -1.5954    1.0000 </r>
       <r>   -1.5319    1.0000 </r>
       <r>   -0.9189    1.0000 </r>
       <r>   -0.8356    1.0000 </r>
       <r>   -0.6988    1.0000 </r>
       <r>    6.3865    0.0000 </r>
       <r>    6.9069    0.0000 </r>
       <r>    7.4000    0.0000 </r>
       <r>    7.6764    0.0000 </r>
       <r>   10.0816    0.0000 </r>
       <r>   10.5098    0.0000 </r>
       <r>   11.2184    0.0000 </r>
       <r>   11.7664    0.0000 </r>
      </set>
      <set comment="kpoint 14">
       <r>  -44.7617    1.0000 </r>
       <r>  -44.6882    1.0000 </r>
       <r>  -44.6881    1.0000 </r>
       <r>  -44.6605    1.0000 </r>
       <r>  -44.6236    1.0000 </r>
       <r>  -44.5990    1.0000 </r>
       <r>  -44.5989    1.0000 </r>
       <r>  -44.5432    1.0000 </r>
       <r>  -17.1374    1.0000 </r>
       <r>  -17.0321    1.0000 </r>
       <r>  -17.0147    1.0000 </r>
       <r>  -12.7833    1.0000 </r>
       <r>   -2.6118    1.0000 </r>
       <r>   -2.5283    1.0000 </r>
       <r>   -2.3457    1.0000 </r>
       <r>   -2.2167    1.0000 </r>
       <r>   -1.9656    1.0000 </r>
       <r>   -1.7897    1.0000 </r>
       <r>   -1.7415    1.0000 </r>
       <r>   -1.6883    1.0000 </r>
       <r>   -1.6322    1.0000 </r>
       <r>   -1.0657    1.0000 </r>
       <r>   -0.7222    1.0000 </r>
       <r>   -0.4705    1.0000 </r>
       <r>    5.7640    0.0000 </r>
       <r>    6.2631    0.0000 </r>
       <r>    6.2908    0.0000 </r>
       <r>    6.7735    0.0000 </r>
       <r>   11.5939    0.0000 </r>
       <r>   11.6422    0.0000 </r>
       <r>   12.1335    0.0000 </r>
       <r>   12.6755    0.0000 </r>
      </set>
      <set comment="kpoint 15">
       <r>  -44.7617    1.0000 </r>
       <r>  -44.6882    1.0000 </r>
       <r>  -44.6882    1.0000 </r>
       <r>  -44.6605    1.0000 </r>
       <r>  -44.6236    1.0000 </r>
       <r>  -44.5990    1.0000 </r>
       <r>  -44.5989    1.0000 </r>
       <r>  -44.5432    1.0000 </r>
       <r>  -17.1374    1.0000 </r>
       <r>  -17.0324    1.0000 </r>
       <r>  -17.0143    1.0000 </r>
       <r>  -12.7833    1.0000 </r>
       <r>   -2.6118    1.0000 </r>
       <r>   -2.5286    1.0000 </r>
       <r>   -2.3450    1.0000 </r>
       <r>   -2.2166    1.0000 </r>
       <r>   -1.9658    1.0000 </r>
       <r>   -1.7900    1.0000 </r>
       <r>   -1.7411    1.0000 </r>
       <r>   -1.6885    1.0000 </r>
       <r>   -1.6323    1.0000 </r>
       <r>   -1.0652    1.0000 </r>
       <r>   -0.7232    1.0000 </r>
       <r>   -0.4699    1.0000 </r>
       <r>    5.7640    0.0000 </r>
       <r>    6.2634    0.0000 </r>
       <r>    6.2903    0.0000 </r>
       <r>    6.7737    0.0000 </r>
       <r>   11.5939    0.0000 </r>
       <r>   11.6409    0.0000 </r>
       <r>   12.1341    0.0000 </r>
       <r>   12.6759    0.0000 </r>
      </set>
      <set comment="kpoint 16">
       <r>  -44.7470    1.0000 </r>
       <r>  -44.6756    1.0000 </r>
       <r>  -44.6753    1.0000 </r>
       <r>  -44.6750    1.0000 </r>
       <r>  -44.6122    1.0000 </r>
       <r>  -44.6120    1.0000 </r>
       <r>  -44.6118    1.0000 </r>
       <r>  -44.5550    1.0000 </r>
       <r>  -17.1184    1.0000 </r>
       <r>  -17.0290    1.0000 </r>
       <r>  -17.0285    1.0000 </r>
       <r>  -12.7770    1.0000 </r>
       <r>   -2.8956    1.0000 </r>
       <r>   -2.7422    1.0000 </r>
       <r>   -2.7416    1.0000 </r>
       <r>   -2.1526    1.0000 </r>
       <r>   -1.8092    1.0000 </r>
       <r>   -1.8089    1.0000 </r>
       <r>   -1.6718    1.0000 </r>
       <r>   -1.4710    1.0000 </r>
       <r>   -1.4708    1.0000 </r>
       <r>   -1.1022    1.0000 </r>
       <r>   -0.5582    1.0000 </r>
       <r>   -0.5569    1.0000 </r>
       <r>    6.2733    0.0000 </r>
       <r>    6.8659    0.0000 </r>
       <r>    6.8663    0.0000 </r>
       <r>    7.2108    0.0000 </r>
       <r>   11.4237    0.0000 </r>
       <r>   12.2534    0.0000 </r>
       <r>   12.2580    0.0000 </r>
       <r>   12.5027    0.0000 </r>
      </set>
      <set comment="kpoint 17">
       <r>  -44.7151    1.0000 </r>
       <r>  -44.7074    1.0000 </r>
       <r>  -44.6474    1.0000 </r>
       <r>  -44.6470    1.0000 </r>
       <r>  -44.6405    1.0000 </r>
       <r>  -44.6399    1.0000 </r>
       <r>  -44.5868    1.0000 </r>
       <r>  -44.5803    1.0000 </r>
       <r>  -17.0865    1.0000 </r>
       <r>  -17.0556    1.0000 </r>
       <r>  -17.0254    1.0000 </r>
       <r>  -12.7706    1.0000 </r>
       <r>   -3.0826    1.0000 </r>
       <r>   -2.9777    1.0000 </r>
       <r>   -2.6937    1.0000 </r>
       <r>   -2.6308    1.0000 </r>
       <r>   -1.7813    1.0000 </r>
       <r>   -1.4998    1.0000 </r>
       <r>   -1.4991    1.0000 </r>
       <r>   -1.4930    1.0000 </r>
       <r>   -1.3879    1.0000 </r>
       <r>   -0.7672    1.0000 </r>
       <r>   -0.7211    1.0000 </r>
       <r>   -0.6537    1.0000 </r>
       <r>    6.9169    0.0000 </r>
       <r>    7.4686    0.0000 </r>
       <r>    7.8614    0.0000 </r>
       <r>    8.0448    0.0000 </r>
       <r>   10.0274    0.0000 </r>
       <r>   10.4979    0.0000 </r>
       <r>   12.0947    0.0000 </r>
       <r>   12.1863    0.0000 </r>
      </set>
      <set comment="kpoint 18">
       <r>  -44.7470    1.0000 </r>
       <r>  -44.6755    1.0000 </r>
       <r>  -44.6753    1.0000 </r>
       <r>  -44.6751    1.0000 </r>
       <r>  -44.6123    1.0000 </r>
       <r>  -44.6120    1.0000 </r>
       <r>  -44.6117    1.0000 </r>
       <r>  -44.5550    1.0000 </r>
       <r>  -17.1184    1.0000 </r>
       <r>  -17.0290    1.0000 </r>
       <r>  -17.0285    1.0000 </r>
       <r>  -12.7770    1.0000 </r>
       <r>   -2.8956    1.0000 </r>
       <r>   -2.7419    1.0000 </r>
       <r>   -2.7415    1.0000 </r>
       <r>   -2.1527    1.0000 </r>
       <r>   -1.8093    1.0000 </r>
       <r>   -1.8089    1.0000 </r>
       <r>   -1.6717    1.0000 </r>
       <r>   -1.4710    1.0000 </r>
       <r>   -1.4707    1.0000 </r>
       <r>   -1.1031    1.0000 </r>
       <r>   -0.5576    1.0000 </r>
       <r>   -0.5569    1.0000 </r>
       <r>    6.2733    0.0000 </r>
       <r>    6.8660    0.0000 </r>
       <r>    6.8663    0.0000 </r>
       <r>    7.2107    0.0000 </r>
       <r>   11.4242    0.0000 </r>
       <r>   12.2573    0.0000 </r>
       <r>   12.2578    0.0000 </r>
       <r>   12.6814    0.0000 </r>
      </set>
      <set comment="kpoint 19">
       <r>  -44.7289    1.0000 </r>
       <r>  -44.7211    1.0000 </r>
       <r>  -44.6595    1.0000 </r>
       <r>  -44.6524    1.0000 </r>
       <r>  -44.6332    1.0000 </r>
       <r>  -44.6264    1.0000 </r>
       <r>  -44.5744    1.0000 </r>
       <r>  -44.5679    1.0000 </r>
       <r>  -17.1015    1.0000 </r>
       <r>  -17.0595    1.0000 </r>
       <r>  -17.0152    1.0000 </r>
       <r>  -12.7787    1.0000 </r>
       <r>   -2.7760    1.0000 </r>
       <r>   -2.7178    1.0000 </r>
       <r>   -2.2273    1.0000 </r>
       <r>   -2.2014    1.0000 </r>
       <r>   -2.1380    1.0000 </r>
       <r>   -1.9442    1.0000 </r>
       <r>   -1.6288    1.0000 </r>
       <r>   -1.5954    1.0000 </r>
       <r>   -1.5323    1.0000 </r>
       <r>   -0.9202    1.0000 </r>
       <r>   -0.8346    1.0000 </r>
       <r>   -0.6987    1.0000 </r>
       <r>    6.3866    0.0000 </r>
       <r>    6.9065    0.0000 </r>
       <r>    7.3999    0.0000 </r>
       <r>    7.6769    0.0000 </r>
       <r>   10.0816    0.0000 </r>
       <r>   10.5097    0.0000 </r>
       <r>   11.2186    0.0000 </r>
       <r>   11.7647    0.0000 </r>
      </set>
      <set comment="kpoint 20">
       <r>  -44.7151    1.0000 </r>
       <r>  -44.7074    1.0000 </r>
       <r>  -44.6474    1.0000 </r>
       <r>  -44.6469    1.0000 </r>
       <r>  -44.6404    1.0000 </r>
       <r>  -44.6400    1.0000 </r>
       <r>  -44.5868    1.0000 </r>
       <r>  -44.5803    1.0000 </r>
       <r>  -17.0861    1.0000 </r>
       <r>  -17.0564    1.0000 </r>
       <r>  -17.0250    1.0000 </r>
       <r>  -12.7706    1.0000 </r>
       <r>   -3.0825    1.0000 </r>
       <r>   -2.9779    1.0000 </r>
       <r>   -2.6932    1.0000 </r>
       <r>   -2.6310    1.0000 </r>
       <r>   -1.7809    1.0000 </r>
       <r>   -1.5001    1.0000 </r>
       <r>   -1.4992    1.0000 </r>
       <r>   -1.4935    1.0000 </r>
       <r>   -1.3875    1.0000 </r>
       <r>   -0.7675    1.0000 </r>
       <r>   -0.7201    1.0000 </r>
       <r>   -0.6544    1.0000 </r>
       <r>    6.9170    0.0000 </r>
       <r>    7.4683    0.0000 </r>
       <r>    7.8612    0.0000 </r>
       <r>    8.0453    0.0000 </r>
       <r>   10.0283    0.0000 </r>
       <r>   10.4948    0.0000 </r>
       <r>   11.8784    0.0000 </r>
       <r>   12.1318    0.0000 </r>
      </set>
      <set comment="kpoint 21">
       <r>  -44.6848    1.0000 </r>
       <r>  -44.6779    1.0000 </r>
       <r>  -44.6774    1.0000 </r>
       <r>  -44.6701    1.0000 </r>
       <r>  -44.6205    1.0000 </r>
       <r>  -44.6138    1.0000 </r>
       <r>  -44.6134    1.0000 </r>
       <r>  -44.6070    1.0000 </r>
       <r>  -17.0532    1.0000 </r>
       <r>  -17.0532    1.0000 </r>
       <r>  -17.0524    1.0000 </r>
       <r>  -12.7626    1.0000 </r>
       <r>   -3.2316    1.0000 </r>
       <r>   -3.0455    1.0000 </r>
       <r>   -3.0222    1.0000 </r>
       <r>   -3.0215    1.0000 </r>
       <r>   -1.5511    1.0000 </r>
       <r>   -1.4421    1.0000 </r>
       <r>   -1.4415    1.0000 </r>
       <r>   -1.3040    1.0000 </r>
       <r>   -1.2285    1.0000 </r>
       <r>   -0.7193    1.0000 </r>
       <r>   -0.5808    1.0000 </r>
       <r>   -0.5793    1.0000 </r>
       <r>    7.7787    0.0000 </r>
       <r>    8.4109    0.0000 </r>
       <r>    8.4752    0.0000 </r>
       <r>    8.4784    0.0000 </r>
       <r>   10.1915    0.0000 </r>
       <r>   10.8589    0.0000 </r>
       <r>   11.1570    0.0000 </r>
       <r>   12.4832    0.0000 </r>
      </set>
      <set comment="kpoint 22">
       <r>  -44.7151    1.0000 </r>
       <r>  -44.7074    1.0000 </r>
       <r>  -44.6474    1.0000 </r>
       <r>  -44.6469    1.0000 </r>
       <r>  -44.6404    1.0000 </r>
       <r>  -44.6400    1.0000 </r>
       <r>  -44.5868    1.0000 </r>
       <r>  -44.5803    1.0000 </r>
       <r>  -17.0861    1.0000 </r>
       <r>  -17.0564    1.0000 </r>
       <r>  -17.0250    1.0000 </r>
       <r>  -12.7706    1.0000 </r>
       <r>   -3.0825    1.0000 </r>
       <r>   -2.9779    1.0000 </r>
       <r>   -2.6932    1.0000 </r>
       <r>   -2.6310    1.0000 </r>
       <r>   -1.7809    1.0000 </r>
       <r>   -1.5001    1.0000 </r>
       <r>   -1.4992    1.0000 </r>
       <r>   -1.4935    1.0000 </r>
       <r>   -1.3875    1.0000 </r>
       <r>   -0.7675    1.0000 </r>
       <r>   -0.7201    1.0000 </r>
       <r>   -0.6544    1.0000 </r>
       <r>    6.9170    0.0000 </r>
       <r>    7.4683    0.0000 </r>
       <r>    7.8612    0.0000 </r>
       <r>    8.0453    0.0000 </r>
       <r>   10.0277    0.0000 </r>
       <r>   10.4999    0.0000 </r>
       <r>   12.0042    0.0000 </r>
       <r>   12.1927    0.0000 </r>
      </set>
      <set comment="kpoint 23">
       <r>  -44.7617    1.0000 </r>
       <r>  -44.6883    1.0000 </r>
       <r>  -44.6881    1.0000 </r>
       <r>  -44.6605    1.0000 </r>
       <r>  -44.6236    1.0000 </r>
       <r>  -44.5990    1.0000 </r>
       <r>  -44.5989    1.0000 </r>
       <r>  -44.5432    1.0000 </r>
       <r>  -17.1374    1.0000 </r>
       <r>  -17.0324    1.0000 </r>
       <r>  -17.0143    1.0000 </r>
       <r>  -12.7833    1.0000 </r>
       <r>   -2.6118    1.0000 </r>
       <r>   -2.5286    1.0000 </r>
       <r>   -2.3451    1.0000 </r>
       <r>   -2.2166    1.0000 </r>
       <r>   -1.9658    1.0000 </r>
       <r>   -1.7901    1.0000 </r>
       <r>   -1.7411    1.0000 </r>
       <r>   -1.6885    1.0000 </r>
       <r>   -1.6324    1.0000 </r>
       <r>   -1.0649    1.0000 </r>
       <r>   -0.7232    1.0000 </r>
       <r>   -0.4701    1.0000 </r>
       <r>    5.7640    0.0000 </r>
       <r>    6.2633    0.0000 </r>
       <r>    6.2903    0.0000 </r>
       <r>    6.7738    0.0000 </r>
       <r>   11.5901    0.0000 </r>
       <r>   11.6362    0.0000 </r>
       <r>   12.1340    0.0000 </r>
       <r>   12.6759    0.0000 </r>
      </set>
      <set comment="kpoint 24">
       <r>  -44.7470    1.0000 </r>
       <r>  -44.6755    1.0000 </r>
       <r>  -44.6752    1.0000 </r>
       <r>  -44.6751    1.0000 </r>
       <r>  -44.6122    1.0000 </r>
       <r>  -44.6120    1.0000 </r>
       <r>  -44.6117    1.0000 </r>
       <r>  -44.5550    1.0000 </r>
       <r>  -17.1184    1.0000 </r>
       <r>  -17.0290    1.0000 </r>
       <r>  -17.0285    1.0000 </r>
       <r>  -12.7770    1.0000 </r>
       <r>   -2.8956    1.0000 </r>
       <r>   -2.7419    1.0000 </r>
       <r>   -2.7416    1.0000 </r>
       <r>   -2.1527    1.0000 </r>
       <r>   -1.8093    1.0000 </r>
       <r>   -1.8089    1.0000 </r>
       <r>   -1.6717    1.0000 </r>
       <r>   -1.4710    1.0000 </r>
       <r>   -1.4707    1.0000 </r>
       <r>   -1.1029    1.0000 </r>
       <r>   -0.5576    1.0000 </r>
       <r>   -0.5571    1.0000 </r>
       <r>    6.2733    0.0000 </r>
       <r>    6.8660    0.0000 </r>
       <r>    6.8663    0.0000 </r>
       <r>    7.2107    0.0000 </r>
       <r>   11.4244    0.0000 </r>
       <r>   12.2565    0.0000 </r>
       <r>   12.2588    0.0000 </r>
       <r>   12.7192    0.0000 </r>
      </set>
      <set comment="kpoint 25">
       <r>  -44.7151    1.0000 </r>
       <r>  -44.7074    1.0000 </r>
       <r>  -44.6475    1.0000 </r>
       <r>  -44.6469    1.0000 </r>
       <r>  -44.6404    1.0000 </r>
       <r>  -44.6400    1.0000 </r>
       <r>  -44.5868    1.0000 </r>
       <r>  -44.5803    1.0000 </r>
       <r>  -17.0865    1.0000 </r>
       <r>  -17.0556    1.0000 </r>
       <r>  -17.0254    1.0000 </r>
       <r>  -12.7706    1.0000 </r>
       <r>   -3.0826    1.0000 </r>
       <r>   -2.9777    1.0000 </r>
       <r>   -2.6937    1.0000 </r>
       <r>   -2.6307    1.0000 </r>
       <r>   -1.7813    1.0000 </r>
       <r>   -1.4998    1.0000 </r>
       <r>   -1.4991    1.0000 </r>
       <r>   -1.4930    1.0000 </r>
       <r>   -1.3879    1.0000 </r>
       <r>   -0.7670    1.0000 </r>
       <r>   -0.7211    1.0000 </r>
       <r>   -0.6539    1.0000 </r>
       <r>    6.9169    0.0000 </r>
       <r>    7.4686    0.0000 </r>
       <r>    7.8614    0.0000 </r>
       <r>    8.0448    0.0000 </r>
       <r>   10.0291    0.0000 </r>
       <r>   10.4983    0.0000 </r>
       <r>   11.9592    0.0000 </r>
       <r>   12.1334    0.0000 </r>
      </set>
      <set comment="kpoint 26">
       <r>  -44.7470    1.0000 </r>
       <r>  -44.6756    1.0000 </r>
       <r>  -44.6753    1.0000 </r>
       <r>  -44.6750    1.0000 </r>
       <r>  -44.6122    1.0000 </r>
       <r>  -44.6120    1.0000 </r>
       <r>  -44.6118    1.0000 </r>
       <r>  -44.5550    1.0000 </r>
       <r>  -17.1184    1.0000 </r>
       <r>  -17.0290    1.0000 </r>
       <r>  -17.0285    1.0000 </r>
       <r>  -12.7770    1.0000 </r>
       <r>   -2.8956    1.0000 </r>
       <r>   -2.7421    1.0000 </r>
       <r>   -2.7416    1.0000 </r>
       <r>   -2.1526    1.0000 </r>
       <r>   -1.8092    1.0000 </r>
       <r>   -1.8089    1.0000 </r>
       <r>   -1.6718    1.0000 </r>
       <r>   -1.4710    1.0000 </r>
       <r>   -1.4708    1.0000 </r>
       <r>   -1.1021    1.0000 </r>
       <r>   -0.5582    1.0000 </r>
       <r>   -0.5571    1.0000 </r>
       <r>    6.2733    0.0000 </r>
       <r>    6.8659    0.0000 </r>
       <r>    6.8663    0.0000 </r>
       <r>    7.2108    0.0000 </r>
       <r>   11.4240    0.0000 </r>
       <r>   12.2549    0.0000 </r>
       <r>   12.2586    0.0000 </r>
       <r>   12.4304    0.0000 </r>
      </set>
      <set comment="kpoint 27">
       <r>  -44.7431    1.0000 </r>
       <r>  -44.7351    1.0000 </r>
       <r>  -44.6454    1.0000 </r>
       <r>  -44.6450    1.0000 </r>
       <r>  -44.6385    1.0000 </r>
       <r>  -44.6381    1.0000 </r>
       <r>  -44.5623    1.0000 </r>
       <r>  -44.5559    1.0000 </r>
       <r>  -17.1219    1.0000 </r>
       <r>  -17.0630    1.0000 </r>
       <r>  -17.0000    1.0000 </r>
       <r>  -12.7846    1.0000 </r>
       <r>   -2.4355    1.0000 </r>
       <r>   -2.3432    1.0000 </r>
       <r>   -2.2369    1.0000 </r>
       <r>   -2.2368    1.0000 </r>
       <r>   -2.0193    1.0000 </r>
       <r>   -2.0189    1.0000 </r>
       <r>   -1.7535    1.0000 </r>
       <r>   -1.5199    1.0000 </r>
       <r>   -1.5198    1.0000 </r>
       <r>   -1.2948    1.0000 </r>
       <r>   -0.8281    1.0000 </r>
       <r>   -0.8264    1.0000 </r>
       <r>    5.7634    0.0000 </r>
       <r>    6.2221    0.0000 </r>
       <r>    6.9454    0.0000 </r>
       <r>    7.3410    0.0000 </r>
       <r>   10.2391    0.0000 </r>
       <r>   10.6560    0.0000 </r>
       <r>   12.3105    0.0000 </r>
       <r>   12.3107    0.0000 </r>
      </set>
      <set comment="kpoint 28">
       <r>  -44.7289    1.0000 </r>
       <r>  -44.7211    1.0000 </r>
       <r>  -44.6595    1.0000 </r>
       <r>  -44.6524    1.0000 </r>
       <r>  -44.6332    1.0000 </r>
       <r>  -44.6264    1.0000 </r>
       <r>  -44.5744    1.0000 </r>
       <r>  -44.5679    1.0000 </r>
       <r>  -17.1015    1.0000 </r>
       <r>  -17.0595    1.0000 </r>
       <r>  -17.0152    1.0000 </r>
       <r>  -12.7787    1.0000 </r>
       <r>   -2.7759    1.0000 </r>
       <r>   -2.7178    1.0000 </r>
       <r>   -2.2276    1.0000 </r>
       <r>   -2.2018    1.0000 </r>
       <r>   -2.1381    1.0000 </r>
       <r>   -1.9442    1.0000 </r>
       <r>   -1.6287    1.0000 </r>
       <r>   -1.5951    1.0000 </r>
       <r>   -1.5321    1.0000 </r>
       <r>   -0.9190    1.0000 </r>
       <r>   -0.8346    1.0000 </r>
       <r>   -0.6999    1.0000 </r>
       <r>    6.3866    0.0000 </r>
       <r>    6.9066    0.0000 </r>
       <r>    7.3997    0.0000 </r>
       <r>    7.6770    0.0000 </r>
       <r>   10.0815    0.0000 </r>
       <r>   10.5098    0.0000 </r>
       <r>   11.2185    0.0000 </r>
       <r>   11.7664    0.0000 </r>
      </set>
      <set comment="kpoint 29">
       <r>  -44.6979    1.0000 </r>
       <r>  -44.6907    1.0000 </r>
       <r>  -44.6906    1.0000 </r>
       <r>  -44.6830    1.0000 </r>
       <r>  -44.6072    1.0000 </r>
       <r>  -44.6005    1.0000 </r>
       <r>  -44.6005    1.0000 </r>
       <r>  -44.5939    1.0000 </r>
       <r>  -17.0564    1.0000 </r>
       <r>  -17.0561    1.0000 </r>
       <r>  -17.0555    1.0000 </r>
       <r>  -12.7728    1.0000 </r>
       <r>   -2.8884    1.0000 </r>
       <r>   -2.7529    1.0000 </r>
       <r>   -2.6112    1.0000 </r>
       <r>   -2.6106    1.0000 </r>
       <r>   -1.9245    1.0000 </r>
       <r>   -1.8532    1.0000 </r>
       <r>   -1.8524    1.0000 </r>
       <r>   -1.3161    1.0000 </r>
       <r>   -1.2409    1.0000 </r>
       <r>   -1.0273    1.0000 </r>
       <r>   -0.6549    1.0000 </r>
       <r>   -0.6538    1.0000 </r>
       <r>    7.3028    0.0000 </r>
       <r>    7.8346    0.0000 </r>
       <r>    8.0393    0.0000 </r>
       <r>    8.0400    0.0000 </r>
       <r>    9.9674    0.0000 </r>
       <r>   10.0778    0.0000 </r>
       <r>   10.0779    0.0000 </r>
       <r>   13.2696    0.0000 </r>
      </set>
      <set comment="kpoint 30">
       <r>  -44.7289    1.0000 </r>
       <r>  -44.7211    1.0000 </r>
       <r>  -44.6595    1.0000 </r>
       <r>  -44.6524    1.0000 </r>
       <r>  -44.6332    1.0000 </r>
       <r>  -44.6264    1.0000 </r>
       <r>  -44.5744    1.0000 </r>
       <r>  -44.5679    1.0000 </r>
       <r>  -17.1015    1.0000 </r>
       <r>  -17.0595    1.0000 </r>
       <r>  -17.0152    1.0000 </r>
       <r>  -12.7787    1.0000 </r>
       <r>   -2.7759    1.0000 </r>
       <r>   -2.7178    1.0000 </r>
       <r>   -2.2272    1.0000 </r>
       <r>   -2.2015    1.0000 </r>
       <r>   -2.1380    1.0000 </r>
       <r>   -1.9442    1.0000 </r>
       <r>   -1.6288    1.0000 </r>
       <r>   -1.5954    1.0000 </r>
       <r>   -1.5323    1.0000 </r>
       <r>   -0.9202    1.0000 </r>
       <r>   -0.8345    1.0000 </r>
       <r>   -0.6988    1.0000 </r>
       <r>    6.3866    0.0000 </r>
       <r>    6.9065    0.0000 </r>
       <r>    7.3998    0.0000 </r>
       <r>    7.6770    0.0000 </r>
       <r>   10.0816    0.0000 </r>
       <r>   10.5098    0.0000 </r>
       <r>   11.2186    0.0000 </r>
       <r>   11.7644    0.0000 </r>
      </set>
      <set comment="kpoint 31">
       <r>  -44.7151    1.0000 </r>
       <r>  -44.7074    1.0000 </r>
       <r>  -44.6477    1.0000 </r>
       <r>  -44.6467    1.0000 </r>
       <r>  -44.6402    1.0000 </r>
       <r>  -44.6402    1.0000 </r>
       <r>  -44.5868    1.0000 </r>
       <r>  -44.5803    1.0000 </r>
       <r>  -17.0861    1.0000 </r>
       <r>  -17.0563    1.0000 </r>
       <r>  -17.0251    1.0000 </r>
       <r>  -12.7706    1.0000 </r>
       <r>   -3.0824    1.0000 </r>
       <r>   -2.9781    1.0000 </r>
       <r>   -2.6932    1.0000 </r>
       <r>   -2.6309    1.0000 </r>
       <r>   -1.7809    1.0000 </r>
       <r>   -1.5002    1.0000 </r>
       <r>   -1.4992    1.0000 </r>
       <r>   -1.4933    1.0000 </r>
       <r>   -1.3875    1.0000 </r>
       <r>   -0.7671    1.0000 </r>
       <r>   -0.7200    1.0000 </r>
       <r>   -0.6550    1.0000 </r>
       <r>    6.9170    0.0000 </r>
       <r>    7.4683    0.0000 </r>
       <r>    7.8611    0.0000 </r>
       <r>    8.0454    0.0000 </r>
       <r>   10.0290    0.0000 </r>
       <r>   10.5021    0.0000 </r>
       <r>   12.1075    0.0000 </r>
       <r>   12.3622    0.0000 </r>
      </set>
      <set comment="kpoint 32">
       <r>  -44.6848    1.0000 </r>
       <r>  -44.6776    1.0000 </r>
       <r>  -44.6776    1.0000 </r>
       <r>  -44.6701    1.0000 </r>
       <r>  -44.6205    1.0000 </r>
       <r>  -44.6136    1.0000 </r>
       <r>  -44.6136    1.0000 </r>
       <r>  -44.6070    1.0000 </r>
       <r>  -17.0533    1.0000 </r>
       <r>  -17.0531    1.0000 </r>
       <r>  -17.0524    1.0000 </r>
       <r>  -12.7626    1.0000 </r>
       <r>   -3.2316    1.0000 </r>
       <r>   -3.0456    1.0000 </r>
       <r>   -3.0222    1.0000 </r>
       <r>   -3.0215    1.0000 </r>
       <r>   -1.5511    1.0000 </r>
       <r>   -1.4420    1.0000 </r>
       <r>   -1.4415    1.0000 </r>
       <r>   -1.3040    1.0000 </r>
       <r>   -1.2285    1.0000 </r>
       <r>   -0.7194    1.0000 </r>
       <r>   -0.5806    1.0000 </r>
       <r>   -0.5794    1.0000 </r>
       <r>    7.7885    0.0000 </r>
       <r>    8.4109    0.0000 </r>
       <r>    8.4734    0.0000 </r>
       <r>    8.4759    0.0000 </r>
       <r>   10.7689    0.0000 </r>
       <r>   10.8683    0.0000 </r>
       <r>   11.9835    0.0000 </r>
       <r>   12.4750    0.0000 </r>
      </set>
      <set comment="kpoint 33">
       <r>  -44.7151    1.0000 </r>
       <r>  -44.7074    1.0000 </r>
       <r>  -44.6472    1.0000 </r>
       <r>  -44.6472    1.0000 </r>
       <r>  -44.6407    1.0000 </r>
       <r>  -44.6398    1.0000 </r>
       <r>  -44.5868    1.0000 </r>
       <r>  -44.5803    1.0000 </r>
       <r>  -17.0861    1.0000 </r>
       <r>  -17.0563    1.0000 </r>
       <r>  -17.0251    1.0000 </r>
       <r>  -12.7706    1.0000 </r>
       <r>   -3.0824    1.0000 </r>
       <r>   -2.9778    1.0000 </r>
       <r>   -2.6932    1.0000 </r>
       <r>   -2.6311    1.0000 </r>
       <r>   -1.7809    1.0000 </r>
       <r>   -1.5000    1.0000 </r>
       <r>   -1.4992    1.0000 </r>
       <r>   -1.4936    1.0000 </r>
       <r>   -1.3875    1.0000 </r>
       <r>   -0.7681    1.0000 </r>
       <r>   -0.7200    1.0000 </r>
       <r>   -0.6539    1.0000 </r>
       <r>    6.9170    0.0000 </r>
       <r>    7.4683    0.0000 </r>
       <r>    7.8612    0.0000 </r>
       <r>    8.0454    0.0000 </r>
       <r>   10.0294    0.0000 </r>
       <r>   10.4989    0.0000 </r>
       <r>   12.1038    0.0000 </r>
       <r>   12.1364    0.0000 </r>
      </set>
      <set comment="kpoint 34">
       <r>  -44.6979    1.0000 </r>
       <r>  -44.6907    1.0000 </r>
       <r>  -44.6906    1.0000 </r>
       <r>  -44.6830    1.0000 </r>
       <r>  -44.6072    1.0000 </r>
       <r>  -44.6005    1.0000 </r>
       <r>  -44.6004    1.0000 </r>
       <r>  -44.5939    1.0000 </r>
       <r>  -17.0562    1.0000 </r>
       <r>  -17.0561    1.0000 </r>
       <r>  -17.0556    1.0000 </r>
       <r>  -12.7728    1.0000 </r>
       <r>   -2.8886    1.0000 </r>
       <r>   -2.7534    1.0000 </r>
       <r>   -2.6103    1.0000 </r>
       <r>   -2.6102    1.0000 </r>
       <r>   -1.9240    1.0000 </r>
       <r>   -1.8531    1.0000 </r>
       <r>   -1.8530    1.0000 </r>
       <r>   -1.3164    1.0000 </r>
       <r>   -1.2414    1.0000 </r>
       <r>   -1.0287    1.0000 </r>
       <r>   -0.6538    1.0000 </r>
       <r>   -0.6535    1.0000 </r>
       <r>    7.3027    0.0000 </r>
       <r>    7.8339    0.0000 </r>
       <r>    8.0400    0.0000 </r>
       <r>    8.0401    0.0000 </r>
       <r>    9.9678    0.0000 </r>
       <r>   10.0776    0.0000 </r>
       <r>   10.0777    0.0000 </r>
       <r>   12.9390    0.0000 </r>
      </set>
      <set comment="kpoint 35">
       <r>  -44.6848    1.0000 </r>
       <r>  -44.6777    1.0000 </r>
       <r>  -44.6776    1.0000 </r>
       <r>  -44.6701    1.0000 </r>
       <r>  -44.6205    1.0000 </r>
       <r>  -44.6137    1.0000 </r>
       <r>  -44.6136    1.0000 </r>
       <r>  -44.6070    1.0000 </r>
       <r>  -17.0532    1.0000 </r>
       <r>  -17.0531    1.0000 </r>
       <r>  -17.0525    1.0000 </r>
       <r>  -12.7626    1.0000 </r>
       <r>   -3.2316    1.0000 </r>
       <r>   -3.0462    1.0000 </r>
       <r>   -3.0215    1.0000 </r>
       <r>   -3.0214    1.0000 </r>
       <r>   -1.5508    1.0000 </r>
       <r>   -1.4417    1.0000 </r>
       <r>   -1.4416    1.0000 </r>
       <r>   -1.3043    1.0000 </r>
       <r>   -1.2290    1.0000 </r>
       <r>   -0.7206    1.0000 </r>
       <r>   -0.5795    1.0000 </r>
       <r>   -0.5792    1.0000 </r>
       <r>    7.7784    0.0000 </r>
       <r>    8.4102    0.0000 </r>
       <r>    8.4760    0.0000 </r>
       <r>    8.4766    0.0000 </r>
       <r>   10.0045    0.0000 </r>
       <r>   10.8747    0.0000 </r>
       <r>   10.9084    0.0000 </r>
       <r>   12.4832    0.0000 </r>
      </set>
      <set comment="kpoint 36">
       <r>  -44.6557    1.0000 </r>
       <r>  -44.6499    1.0000 </r>
       <r>  -44.6497    1.0000 </r>
       <r>  -44.6495    1.0000 </r>
       <r>  -44.6419    1.0000 </r>
       <r>  -44.6417    1.0000 </r>
       <r>  -44.6414    1.0000 </r>
       <r>  -44.6356    1.0000 </r>
       <r>  -17.0501    1.0000 </r>
       <r>  -17.0501    1.0000 </r>
       <r>  -17.0494    1.0000 </r>
       <r>  -12.7523    1.0000 </r>
       <r>   -3.4618    1.0000 </r>
       <r>   -3.2746    1.0000 </r>
       <r>   -3.2739    1.0000 </r>
       <r>   -3.2738    1.0000 </r>
       <r>   -1.2922    1.0000 </r>
       <r>   -1.2918    1.0000 </r>
       <r>   -1.2165    1.0000 </r>
       <r>   -1.2160    1.0000 </r>
       <r>   -1.2160    1.0000 </r>
       <r>   -0.4796    1.0000 </r>
       <r>   -0.4782    1.0000 </r>
       <r>   -0.4779    1.0000 </r>
       <r>    8.6517    0.0000 </r>
       <r>    9.4105    0.0000 </r>
       <r>    9.4109    0.0000 </r>
       <r>   10.5262    0.0000 </r>
       <r>   11.7241    0.0000 </r>
       <r>   11.7715    0.0000 </r>
       <r>   11.7998    0.0000 </r>
       <r>   11.9804    0.0000 </r>
      </set>
     </set>
     <set comment="spin 2">
      <set comment="kpoint 1">
       <r>  -44.7943    1.0000 </r>
       <r>  -44.6887    1.0000 </r>
       <r>  -44.6885    1.0000 </r>
       <r>  -44.6882    1.0000 </r>
       <r>  -44.6005    1.0000 </r>
       <r>  -44.6003    1.0000 </r>
       <r>  -44.6000    1.0000 </r>
       <r>  -44.5235    1.0000 </r>
       <r>  -17.0726    1.0000 </r>
       <r>  -16.8941    1.0000 </r>
       <r>  -16.8938    1.0000 </r>
       <r>  -11.4813    1.0000 </r>
       <r>   -2.2163    1.0000 </r>
       <r>   -2.2162    1.0000 </r>
       <r>   -2.2161    1.0000 </r>
       <r>   -1.9775    1.0000 </r>
       <r>   -1.9774    1.0000 </r>
       <r>   -1.9773    1.0000 </r>
       <r>   -1.3868    1.0000 </r>
       <r>   -1.3868    1.0000 </r>
       <r>   -1.3867    1.0000 </r>
       <r>    0.5495    0.0000 </r>
       <r>    0.5495    0.0000 </r>
       <r>    0.5499    0.0000 </r>
       <r>    4.6260    0.0000 </r>
       <r>    4.8872    0.0000 </r>
       <r>    4.8876    0.0000 </r>
       <r>    5.7576    0.0000 </r>
       <r>   11.8866    0.0000 </r>
       <r>   11.8866    0.0000 </r>
       <r>   11.8867    0.0000 </r>
       <r>   13.4261    0.0000 </r>
      </set>
      <set comment="kpoint 2">
       <r>  -44.7790    1.0000 </r>
       <r>  -44.7040    1.0000 </r>
       <r>  -44.6758    1.0000 </r>
       <r>  -44.6757    1.0000 </r>
       <r>  -44.6132    1.0000 </r>
       <r>  -44.6131    1.0000 </r>
       <r>  -44.5891    1.0000 </r>
       <r>  -44.5347    1.0000 </r>
       <r>  -17.0481    1.0000 </r>
       <r>  -16.9146    1.0000 </r>
       <r>  -16.8899    1.0000 </r>
       <r>  -11.4767    1.0000 </r>
       <r>   -2.1930    1.0000 </r>
       <r>   -2.1808    1.0000 </r>
       <r>   -2.1808    1.0000 </r>
       <r>   -2.1733    1.0000 </r>
       <r>   -1.9150    1.0000 </r>
       <r>   -1.9150    1.0000 </r>
       <r>   -1.5671    1.0000 </r>
       <r>   -1.4026    1.0000 </r>
       <r>   -1.4026    1.0000 </r>
       <r>    0.0913    1.0000 </r>
       <r>    0.4126    0.0643 </r>
       <r>    0.4126    0.0639 </r>
       <r>    5.2007    0.0000 </r>
       <r>    5.6118    0.0000 </r>
       <r>    5.7458    0.0000 </r>
       <r>    6.4907    0.0000 </r>
       <r>   11.9307    0.0000 </r>
       <r>   12.0430    0.0000 </r>
       <r>   12.0430    0.0000 </r>
       <r>   12.3028    0.0000 </r>
      </set>
      <set comment="kpoint 3">
       <r>  -44.7458    1.0000 </r>
       <r>  -44.7374    1.0000 </r>
       <r>  -44.6481    1.0000 </r>
       <r>  -44.6480    1.0000 </r>
       <r>  -44.6410    1.0000 </r>
       <r>  -44.6409    1.0000 </r>
       <r>  -44.5652    1.0000 </r>
       <r>  -44.5588    1.0000 </r>
       <r>  -17.0104    1.0000 </r>
       <r>  -16.9490    1.0000 </r>
       <r>  -16.8854    1.0000 </r>
       <r>  -11.4720    1.0000 </r>
       <r>   -2.3500    1.0000 </r>
       <r>   -2.2092    1.0000 </r>
       <r>   -2.1496    1.0000 </r>
       <r>   -2.1496    1.0000 </r>
       <r>   -1.8379    1.0000 </r>
       <r>   -1.8379    1.0000 </r>
       <r>   -1.6405    1.0000 </r>
       <r>   -1.4196    1.0000 </r>
       <r>   -1.4195    1.0000 </r>
       <r>   -0.3440    1.0000 </r>
       <r>    0.2673    0.9950 </r>
       <r>    0.2674    0.9949 </r>
       <r>    5.8167    0.0000 </r>
       <r>    6.3242    0.0000 </r>
       <r>    6.9958    0.0000 </r>
       <r>    7.6751    0.0000 </r>
       <r>   10.2410    0.0000 </r>
       <r>   10.8131    0.0000 </r>
       <r>   12.3950    0.0000 </r>
       <r>   12.3987    0.0000 </r>
      </set>
      <set comment="kpoint 4">
       <r>  -44.7790    1.0000 </r>
       <r>  -44.7040    1.0000 </r>
       <r>  -44.6757    1.0000 </r>
       <r>  -44.6757    1.0000 </r>
       <r>  -44.6132    1.0000 </r>
       <r>  -44.6132    1.0000 </r>
       <r>  -44.5891    1.0000 </r>
       <r>  -44.5347    1.0000 </r>
       <r>  -17.0481    1.0000 </r>
       <r>  -16.9148    1.0000 </r>
       <r>  -16.8898    1.0000 </r>
       <r>  -11.4767    1.0000 </r>
       <r>   -2.1932    1.0000 </r>
       <r>   -2.1807    1.0000 </r>
       <r>   -2.1806    1.0000 </r>
       <r>   -2.1733    1.0000 </r>
       <r>   -1.9152    1.0000 </r>
       <r>   -1.9152    1.0000 </r>
       <r>   -1.5672    1.0000 </r>
       <r>   -1.4025    1.0000 </r>
       <r>   -1.4025    1.0000 </r>
       <r>    0.0910    1.0000 </r>
       <r>    0.4126    0.0642 </r>
       <r>    0.4129    0.0625 </r>
       <r>    5.2008    0.0000 </r>
       <r>    5.6117    0.0000 </r>
       <r>    5.7456    0.0000 </r>
       <r>    6.4910    0.0000 </r>
       <r>   11.9308    0.0000 </r>
       <r>   12.0430    0.0000 </r>
       <r>   12.0431    0.0000 </r>
       <r>   12.3027    0.0000 </r>
      </set>
      <set comment="kpoint 5">
       <r>  -44.7641    1.0000 </r>
       <r>  -44.6911    1.0000 </r>
       <r>  -44.6905    1.0000 </r>
       <r>  -44.6632    1.0000 </r>
       <r>  -44.6264    1.0000 </r>
       <r>  -44.6020    1.0000 </r>
       <r>  -44.6016    1.0000 </r>
       <r>  -44.5461    1.0000 </r>
       <r>  -17.0257    1.0000 </r>
       <r>  -16.9181    1.0000 </r>
       <r>  -16.9002    1.0000 </r>
       <r>  -11.4703    1.0000 </r>
       <r>   -2.5157    1.0000 </r>
       <r>   -2.4110    1.0000 </r>
       <r>   -2.1429    1.0000 </r>
       <r>   -2.1179    1.0000 </r>
       <r>   -1.8650    1.0000 </r>
       <r>   -1.6937    1.0000 </r>
       <r>   -1.6364    1.0000 </r>
       <r>   -1.4563    1.0000 </r>
       <r>   -1.3781    1.0000 </r>
       <r>   -0.0216    1.0000 </r>
       <r>    0.3104    0.9135 </r>
       <r>    0.3913    0.1779 </r>
       <r>    5.7924    0.0000 </r>
       <r>    6.3380    0.0000 </r>
       <r>    6.3889    0.0000 </r>
       <r>    7.0276    0.0000 </r>
       <r>   11.6527    0.0000 </r>
       <r>   11.6889    0.0000 </r>
       <r>   12.2076    0.0000 </r>
       <r>   12.7409    0.0000 </r>
      </set>
      <set comment="kpoint 6">
       <r>  -44.7316    1.0000 </r>
       <r>  -44.7234    1.0000 </r>
       <r>  -44.6623    1.0000 </r>
       <r>  -44.6550    1.0000 </r>
       <r>  -44.6361    1.0000 </r>
       <r>  -44.6291    1.0000 </r>
       <r>  -44.5773    1.0000 </r>
       <r>  -44.5707    1.0000 </r>
       <r>  -16.9894    1.0000 </r>
       <r>  -16.9455    1.0000 </r>
       <r>  -16.9010    1.0000 </r>
[...]
        <r>  0.0104  0.0030  0.0055  0.0028  0.0000  0.0000  0.0000  0.0000  0.0000 </r>
        <r>  0.0109  0.0028  0.0053  0.0030  0.0000  0.0000  0.0000  0.0000  0.0000 </r>
        <r>  0.0109  0.0028  0.0053  0.0030  0.0000  0.0000  0.0000  0.0000  0.0000 </r>
        <r>  0.0104  0.0030  0.0055  0.0028  0.0000  0.0000  0.0000  0.0000  0.0000 </r>
        <r>  0.0000  0.0000  0.0429  0.0000  0.0000  0.0000  0.0000  0.0000  0.0000 </r>
        <r>  0.0000  0.0000  0.0000  0.0000  0.0000  0.0000  0.0000  0.0000  0.0000 </r>
        <r>  0.0000  0.1986  0.0000  0.0000  0.0000  0.0000  0.0000  0.0000  0.0000 </r>
        <r>  0.0000  0.0000  0.0000  0.1987  0.0000  0.0000  0.0000  0.0000  0.0000 </r>
       </set>
       <set comment="band 17">
        <r>  0.0000  0.0031  0.0052  0.0003  0.0000  0.0000  0.0000  0.0000  0.0000 </r>
        <r>  0.0000  0.0031  0.0052  0.0003  0.0000  0.0000  0.0000  0.0000  0.0000 </r>
        <r>  0.0000  0.0031  0.0052  0.0003  0.0000  0.0000  0.0000  0.0000  0.0000 </r>
        <r>  0.0000  0.0031  0.0052  0.0003  0.0000  0.0000  0.0000  0.0000  0.0000 </r>
        <r>  0.0000  0.0031  0.0052  0.0003  0.0000  0.0000  0.0000  0.0000  0.0000 </r>
        <r>  0.0000  0.0031  0.0052  0.0003  0.0000  0.0000  0.0000  0.0000  0.0000 </r>
        <r>  0.0000  0.0031  0.0052  0.0003  0.0000  0.0000  0.0000  0.0000  0.0000 </r>
        <r>  0.0000  0.0031  0.0052  0.0003  0.0000  0.0000  0.0000  0.0000  0.0000 </r>
        <r>  0.0000  0.0000  0.0000  0.0000  0.0000  0.0000  0.0000  0.0000  0.0000 </r>
        <r>  0.0000  0.0000  0.4003  0.0000  0.0000  0.0000  0.0000  0.0000  0.0000 </r>
        <r>  0.0000  0.0000  0.0000  0.0210  0.0000  0.0000  0.0000  0.0000  0.0000 </r>
        <r>  0.0000  0.2380  0.0000  0.0000  0.0000  0.0000  0.0000  0.0000  0.0000 </r>
       </set>
       <set comment="band 18">
        <r>  0.0000  0.0026  0.0005  0.0054  0.0000  0.0000  0.0000  0.0000  0.0000 </r>
        <r>  0.0000  0.0026  0.0005  0.0054  0.0000  0.0000  0.0000  0.0000  0.0000 </r>
        <r>  0.0000  0.0026  0.0005  0.0054  0.0000  0.0000  0.0000  0.0000  0.0000 </r>
        <r>  0.0000  0.0026  0.0005  0.0054  0.0000  0.0000  0.0000  0.0000  0.0000 </r>
        <r>  0.0000  0.0026  0.0005  0.0054  0.0000  0.0000  0.0000  0.0000  0.0000 </r>
        <r>  0.0000  0.0026  0.0005  0.0054  0.0000  0.0000  0.0000  0.0000  0.0000 </r>
        <r>  0.0000  0.0026  0.0005  0.0054  0.0000  0.0000  0.0000  0.0000  0.0000 </r>
        <r>  0.0000  0.0026  0.0005  0.0054  0.0000  0.0000  0.0000  0.0000  0.0000 </r>
        <r>  0.0000  0.0000  0.0000  0.0000  0.0000  0.0000  0.0000  0.0000  0.0000 </r>
        <r>  0.0000  0.0000  0.0392  0.0000  0.0000  0.0000  0.0000  0.0000  0.0000 </r>
        <r>  0.0000  0.0000  0.0000  0.4185  0.0000  0.0000  0.0000  0.0000  0.0000 </r>
        <r>  0.0000  0.2015  0.0000  0.0000  0.0000  0.0000  0.0000  0.0000  0.0000 </r>
       </set>
       <set comment="band 19">
        <r>  0.0000  0.0040  0.0029  0.0001  0.0000  0.0000  0.0000  0.0000  0.0000 </r>
        <r>  0.0000  0.0039  0.0029  0.0001  0.0000  0.0000  0.0000  0.0000  0.0000 </r>
        <r>  0.0000  0.0040  0.0052  0.0001  0.0000  0.0000  0.0000  0.0000  0.0000 </r>
        <r>  0.0000  0.0039  0.0052  0.0001  0.0000  0.0000  0.0000  0.0000  0.0000 </r>
        <r>  0.0000  0.0039  0.0029  0.0001  0.0000  0.0000  0.0000  0.0000  0.0000 </r>
        <r>  0.0000  0.0040  0.0029  0.0001  0.0000  0.0000  0.0000  0.0000  0.0000 </r>
        <r>  0.0000  0.0039  0.0052  0.0001  0.0000  0.0000  0.0000  0.0000  0.0000 </r>
        <r>  0.0000  0.0040  0.0052  0.0001  0.0000  0.0000  0.0000  0.0000  0.0000 </r>
        <r>  0.0000  0.0000  0.0000  0.0000  0.0000  0.0000  0.0000  0.0000  0.0000 </r>
        <r>  0.0000  0.3242  0.0000  0.0070  0.0000  0.0000  0.0000  0.0000  0.0000 </r>
        <r>  0.0000  0.0000  0.0070  0.0000  0.0000  0.0000  0.0000  0.0000  0.0000 </r>
        <r>  0.0000  0.0000  0.3242  0.0000  0.0000  0.0000  0.0000  0.0000  0.0000 </r>
       </set>
       <set comment="band 20">
        <r>  0.0000  0.0000  0.0052  0.0045  0.0000  0.0000  0.0000  0.0000  0.0000 </r>
        <r>  0.0000  0.0002  0.0052  0.0034  0.0000  0.0000  0.0000  0.0000  0.0000 </r>
        <r>  0.0000  0.0000  0.0029  0.0034  0.0000  0.0000  0.0000  0.0000  0.0000 </r>
        <r>  0.0000  0.0002  0.0029  0.0045  0.0000  0.0000  0.0000  0.0000  0.0000 </r>
        <r>  0.0000  0.0002  0.0052  0.0034  0.0000  0.0000  0.0000  0.0000  0.0000 </r>
        <r>  0.0000  0.0000  0.0052  0.0045  0.0000  0.0000  0.0000  0.0000  0.0000 </r>
        <r>  0.0000  0.0002  0.0029  0.0045  0.0000  0.0000  0.0000  0.0000  0.0000 </r>
        <r>  0.0000  0.0000  0.0029  0.0034  0.0000  0.0000  0.0000  0.0000  0.0000 </r>
        <r>  0.0000  0.0000  0.0000  0.0000  0.0000  0.0000  0.0000  0.0000  0.0000 </r>
        <r>  0.0000  0.0070  0.0000  0.3224  0.0000  0.0000  0.0000  0.0000  0.0000 </r>
        <r>  0.0000  0.0018  0.3225  0.0000  0.0000  0.0000  0.0000  0.0000  0.0000 </r>
        <r>  0.0000  0.0000  0.0070  0.0018  0.0000  0.0000  0.0000  0.0000  0.0000 </r>
       </set>
       <set comment="band 21">
        <r>  0.0000  0.0041  0.0000  0.0034  0.0000  0.0000  0.0000  0.0000  0.0000 </r>
        <r>  0.0000  0.0039  0.0000  0.0046  0.0000  0.0000  0.0000  0.0000  0.0000 </r>
        <r>  0.0000  0.0041  0.0000  0.0046  0.0000  0.0000  0.0000  0.0000  0.0000 </r>
        <r>  0.0000  0.0039  0.0000  0.0034  0.0000  0.0000  0.0000  0.0000  0.0000 </r>
        <r>  0.0000  0.0039  0.0000  0.0046  0.0000  0.0000  0.0000  0.0000  0.0000 </r>
        <r>  0.0000  0.0041  0.0000  0.0034  0.0000  0.0000  0.0000  0.0000  0.0000 </r>
        <r>  0.0000  0.0039  0.0000  0.0034  0.0000  0.0000  0.0000  0.0000  0.0000 </r>
        <r>  0.0000  0.0041  0.0000  0.0046  0.0000  0.0000  0.0000  0.0000  0.0000 </r>
        <r>  0.0000  0.0000  0.0000  0.0000  0.0000  0.0000  0.0000  0.0000  0.0000 </r>
        <r>  0.0000  0.0000  0.0000  0.0018  0.0000  0.0000  0.0000  0.0000  0.0000 </r>
        <r>  0.0000  0.3295  0.0018  0.0000  0.0000  0.0000  0.0000  0.0000  0.0000 </r>
        <r>  0.0000  0.0000  0.0000  0.3294  0.0000  0.0000  0.0000  0.0000  0.0000 </r>
       </set>
       <set comment="band 22">
        <r>  0.0010  0.0033  0.0033  0.0033  0.0000  0.0000  0.0000  0.0000  0.0000 </r>
        <r>  0.0017  0.0057  0.0057  0.0057  0.0000  0.0000  0.0000  0.0000  0.0000 </r>
        <r>  0.0008  0.0028  0.0028  0.0028  0.0000  0.0000  0.0000  0.0000  0.0000 </r>
        <r>  0.0008  0.0027  0.0028  0.0027  0.0000  0.0000  0.0000  0.0000  0.0000 </r>
        <r>  0.0017  0.0057  0.0057  0.0057  0.0000  0.0000  0.0000  0.0000  0.0000 </r>
        <r>  0.0010  0.0033  0.0033  0.0033  0.0000  0.0000  0.0000  0.0000  0.0000 </r>
        <r>  0.0008  0.0028  0.0028  0.0027  0.0000  0.0000  0.0000  0.0000  0.0000 </r>
        <r>  0.0008  0.0028  0.0028  0.0028  0.0000  0.0000  0.0000  0.0000  0.0000 </r>
        <r>  0.0000  0.1579  0.2292  0.0176  0.0000  0.0000  0.0000  0.0000  0.0000 </r>
        <r>  0.0000  0.0032  0.0000  0.0285  0.0000  0.0000  0.0000  0.0000  0.0000 </r>
        <r>  0.0000  0.0413  0.0285  0.0000  0.0000  0.0000  0.0000  0.0000  0.0000 </r>
        <r>  0.0000  0.0000  0.0032  0.0413  0.0000  0.0000  0.0000  0.0000  0.0000 </r>
       </set>
       <set comment="band 23">
        <r>  0.0011  0.0038  0.0038  0.0038  0.0000  0.0000  0.0000  0.0000  0.0000 </r>
        <r>  0.0015  0.0049  0.0049  0.0049  0.0000  0.0000  0.0000  0.0000  0.0000 </r>
        <r>  0.0001  0.0003  0.0003  0.0003  0.0000  0.0000  0.0000  0.0000  0.0000 </r>
        <r>  0.0017  0.0056  0.0056  0.0056  0.0000  0.0000  0.0000  0.0000  0.0000 </r>
        <r>  0.0015  0.0049  0.0049  0.0049  0.0000  0.0000  0.0000  0.0000  0.0000 </r>
        <r>  0.0011  0.0038  0.0038  0.0038  0.0000  0.0000  0.0000  0.0000  0.0000 </r>
        <r>  0.0017  0.0056  0.0056  0.0056  0.0000  0.0000  0.0000  0.0000  0.0000 </r>
        <r>  0.0001  0.0003  0.0003  0.0003  0.0000  0.0000  0.0000  0.0000  0.0000 </r>
        <r>  0.0000  0.1288  0.0947  0.1814  0.0000  0.0000  0.0000  0.0000  0.0000 </r>
        <r>  0.0000  0.0327  0.0000  0.0232  0.0000  0.0000  0.0000  0.0000  0.0000 </r>
        <r>  0.0000  0.0171  0.0232  0.0000  0.0000  0.0000  0.0000  0.0000  0.0000 </r>
        <r>  0.0000  0.0000  0.0327  0.0171  0.0000  0.0000  0.0000  0.0000  0.0000 </r>
       </set>
       <set comment="band 24">
        <r>  0.0011  0.0038  0.0038  0.0038  0.0000  0.0000  0.0000  0.0000  0.0000 </r>
        <r>  0.0001  0.0003  0.0003  0.0003  0.0000  0.0000  0.0000  0.0000  0.0000 </r>
        <r>  0.0024  0.0079  0.0079  0.0079  0.0000  0.0000  0.0000  0.0000  0.0000 </r>
        <r>  0.0008  0.0026  0.0025  0.0026  0.0000  0.0000  0.0000  0.0000  0.0000 </r>
        <r>  0.0001  0.0003  0.0003  0.0003  0.0000  0.0000  0.0000  0.0000  0.0000 </r>
        <r>  0.0011  0.0038  0.0038  0.0038  0.0000  0.0000  0.0000  0.0000  0.0000 </r>
        <r>  0.0008  0.0026  0.0025  0.0026  0.0000  0.0000  0.0000  0.0000  0.0000 </r>
        <r>  0.0024  0.0079  0.0079  0.0079  0.0000  0.0000  0.0000  0.0000  0.0000 </r>
        <r>  0.0000  0.1181  0.0808  0.2058  0.0000  0.0000  0.0000  0.0000  0.0000 </r>
        <r>  0.0000  0.0371  0.0000  0.0213  0.0000  0.0000  0.0000  0.0000  0.0000 </r>
        <r>  0.0000  0.0146  0.0213  0.0000  0.0000  0.0000  0.0000  0.0000  0.0000 </r>
        <r>  0.0000  0.0000  0.0371  0.0146  0.0000  0.0000  0.0000  0.0000  0.0000 </r>
       </set>
       <set comment="band 25">
        <r>  0.0042  0.0045  0.0045  0.0045  0.0000  0.0000  0.0000  0.0000  0.0000 </r>
        <r>  0.0041  0.0045  0.0045  0.0045  0.0000  0.0000  0.0000  0.0000  0.0000 </r>
        <r>  0.0042  0.0045  0.0045  0.0045  0.0000  0.0000  0.0000  0.0000  0.0000 </r>
        <r>  0.0042  0.0045  0.0045  0.0045  0.0000  0.0000  0.0000  0.0000  0.0000 </r>
        <r>  0.0042  0.0045  0.0045  0.0045  0.0000  0.0000  0.0000  0.0000  0.0000 </r>
        <r>  0.0042  0.0045  0.0044  0.0045  0.0000  0.0000  0.0000  0.0000  0.0000 </r>
        <r>  0.0042  0.0044  0.0045  0.0045  0.0000  0.0000  0.0000  0.0000  0.0000 </r>
        <r>  0.0042  0.0045  0.0045  0.0044  0.0000  0.0000  0.0000  0.0000  0.0000 </r>
        <r>  0.0000  0.0000  0.0000  0.0000  0.0000  0.0000  0.0000  0.0000  0.0000 </r>
        <r>  0.0000  0.0000  0.1140  0.0000  0.0000  0.0000  0.0000  0.0000  0.0000 </r>
        <r>  0.0000  0.0000  0.0000  0.1140  0.0000  0.0000  0.0000  0.0000  0.0000 </r>
        <r>  0.0000  0.1140  0.0000  0.0000  0.0000  0.0000  0.0000  0.0000  0.0000 </r>
       </set>
       <set comment="band 26">
        <r>  0.0015  0.0022  0.0033  0.0096  0.0000  0.0000  0.0000  0.0000  0.0000 </r>
        <r>  0.0027  0.0067  0.0015  0.0042  0.0000  0.0000  0.0000  0.0000  0.0000 </r>
        <r>  0.0016  0.0020  0.0067  0.0058  0.0000  0.0000  0.0000  0.0000  0.0000 </r>
        <r>  0.0060  0.0022  0.0008  0.0033  0.0000  0.0000  0.0000  0.0000  0.0000 </r>
        <r>  0.0027  0.0068  0.0016  0.0043  0.0000  0.0000  0.0000  0.0000  0.0000 </r>
        <r>  0.0015  0.0022  0.0032  0.0094  0.0000  0.0000  0.0000  0.0000  0.0000 </r>
        <r>  0.0058  0.0022  0.0007  0.0032  0.0000  0.0000  0.0000  0.0000  0.0000 </r>
        <r>  0.0017  0.0021  0.0069  0.0059  0.0000  0.0000  0.0000  0.0000  0.0000 </r>
        <r>  0.0000  0.0239  0.0175  0.0973  0.0000  0.0000  0.0000  0.0000  0.0000 </r>
        <r>  0.0000  0.0756  0.0000  0.0186  0.0000  0.0000  0.0000  0.0000  0.0000 </r>
        <r>  0.0000  0.0136  0.0186  0.0000  0.0000  0.0000  0.0000  0.0000  0.0000 </r>
        <r>  0.0000  0.0000  0.0757  0.0136  0.0000  0.0000  0.0000  0.0000  0.0000 </r>
       </set>
       <set comment="band 27">
        <r>  0.0041  0.0151  0.0021  0.0293  0.0000  0.0000  0.0000  0.0000  0.0000 </r>
        <r>  0.0011  0.0117  0.0008  0.0074  0.0000  0.0000  0.0000  0.0000  0.0000 </r>
        <r>  0.0004  0.0334  0.0065  0.0087  0.0000  0.0000  0.0000  0.0000  0.0000 </r>
        <r>  0.0011  0.0039  0.0147  0.0131  0.0000  0.0000  0.0000  0.0000  0.0000 </r>
        <r>  0.0006  0.0097  0.0121  0.0036  0.0000  0.0000  0.0000  0.0000  0.0000 </r>
        <r>  0.0021  0.0158  0.0004  0.0214  0.0000  0.0000  0.0000  0.0000  0.0000 </r>
        <r>  0.0012  0.0125  0.0238  0.0300  0.0000  0.0000  0.0000  0.0000  0.0000 </r>
        <r>  0.0001  0.0113  0.0055  0.0028  0.0000  0.0000  0.0000  0.0000  0.0000 </r>
        <r>  0.0000  0.0189  0.0230  0.0136  0.0000  0.0000  0.0000  0.0000  0.0000 </r>
        <r>  0.0000  0.0109  0.0000  0.0152  0.0000  0.0000  0.0000  0.0000  0.0000 </r>
        <r>  0.0002  0.0185  0.0152  0.0000  0.0000  0.0000  0.0000  0.0000  0.0000 </r>
        <r>  0.0000  0.0000  0.0109  0.0185  0.0000  0.0000  0.0000  0.0000  0.0000 </r>
       </set>
       <set comment="band 28">
        <r>  0.0007  0.0235  0.0102  0.0260  0.0000  0.0000  0.0000  0.0000  0.0000 </r>
        <r>  0.0009  0.0161  0.0081  0.0194  0.0000  0.0000  0.0000  0.0000  0.0000 </r>
        <r>  0.0002  0.0021  0.0222  0.0001  0.0000  0.0000  0.0000  0.0000  0.0000 </r>
        <r>  0.0003  0.0290  0.0237  0.0177  0.0000  0.0000  0.0000  0.0000  0.0000 </r>
        <r>  0.0003  0.0185  0.0062  0.0358  0.0000  0.0000  0.0000  0.0000  0.0000 </r>
        <r>  0.0016  0.0111  0.0240  0.0289  0.0000  0.0000  0.0000  0.0000  0.0000 </r>
        <r>  0.0003  0.0135  0.0139  0.0141  0.0000  0.0000  0.0000  0.0000  0.0000 </r>
        <r>  0.0018  0.0029  0.0259  0.0021  0.0000  0.0000  0.0000  0.0000  0.0000 </r>
        <r>  0.0000  0.0071  0.0077  0.0009  0.0000  0.0000  0.0000  0.0000  0.0000 </r>
        <r>  0.0004  0.0007  0.0000  0.0058  0.0000  0.0000  0.0000  0.0000  0.0000 </r>
        <r>  0.0003  0.0062  0.0058  0.0000  0.0000  0.0000  0.0000  0.0000  0.0000 </r>
        <r>  0.0004  0.0000  0.0007  0.0062  0.0000  0.0000  0.0000  0.0000  0.0000 </r>
       </set>
       <set comment="band 29">
        <r>  0.0005  0.0082  0.0076  0.0123  0.0000  0.0000  0.0000  0.0000  0.0000 </r>
        <r>  0.0001  0.0049  0.0013  0.0056  0.0000  0.0000  0.0000  0.0000  0.0000 </r>
        <r>  0.0023  0.0348  0.0256  0.0405  0.0000  0.0000  0.0000  0.0000  0.0000 </r>
        <r>  0.0014  0.0280  0.0154  0.0301  0.0000  0.0000  0.0000  0.0000  0.0000 </r>
        <r>  0.0001  0.0050  0.0013  0.0055  0.0000  0.0000  0.0000  0.0000  0.0000 </r>
        <r>  0.0005  0.0085  0.0074  0.0121  0.0000  0.0000  0.0000  0.0000  0.0000 </r>
        <r>  0.0013  0.0282  0.0153  0.0301  0.0000  0.0000  0.0000  0.0000  0.0000 </r>
        <r>  0.0023  0.0348  0.0258  0.0404  0.0000  0.0000  0.0000  0.0000  0.0000 </r>
        <r>  0.0000  0.0000  0.0000  0.0000  0.0000  0.0000  0.0000  0.0000  0.0000 </r>
        <r>  0.0001  0.0000  0.0000  0.0000  0.0000  0.0000  0.0000  0.0000  0.0000 </r>
        <r>  0.0015  0.0000  0.0000  0.0000  0.0000  0.0000  0.0000  0.0000  0.0000 </r>
        <r>  0.0011  0.0000  0.0000  0.0000  0.0000  0.0000  0.0000  0.0000  0.0000 </r>
       </set>
       <set comment="band 30">
        <r>  0.0005  0.0091  0.0233  0.0070  0.0000  0.0000  0.0000  0.0000  0.0000 </r>
        <r>  0.0004  0.0101  0.0417  0.0224  0.0000  0.0000  0.0000  0.0000  0.0000 </r>
        <r>  0.0004  0.0079  0.0224  0.0132  0.0000  0.0000  0.0000  0.0000  0.0000 </r>
        <r>  0.0004  0.0104  0.0323  0.0179  0.0000  0.0000  0.0000  0.0000  0.0000 </r>
        <r>  0.0002  0.0100  0.0386  0.0255  0.0000  0.0000  0.0000  0.0000  0.0000 </r>
        <r>  0.0002  0.0100  0.0209  0.0068  0.0000  0.0000  0.0000  0.0000  0.0000 </r>
        <r>  0.0004  0.0109  0.0278  0.0193  0.0000  0.0000  0.0000  0.0000  0.0000 </r>
        <r>  0.0001  0.0084  0.0211  0.0141  0.0000  0.0000  0.0000  0.0000  0.0000 </r>
        <r>  0.0000  0.0001  0.0004  0.0001  0.0000  0.0000  0.0000  0.0000  0.0000 </r>
        <r>  0.0007  0.0000  0.0000  0.0001  0.0000  0.0000  0.0000  0.0000  0.0000 </r>
        <r>  0.0000  0.0003  0.0001  0.0000  0.0000  0.0000  0.0000  0.0000  0.0000 </r>
        <r>  0.0001  0.0000  0.0000  0.0003  0.0000  0.0000  0.0000  0.0000  0.0000 </r>
       </set>
       <set comment="band 31">
        <r>  0.0006  0.0242  0.0165  0.0092  0.0000  0.0000  0.0000  0.0000  0.0000 </r>
        <r>  0.0001  0.0511  0.0117  0.0050  0.0000  0.0000  0.0000  0.0000  0.0000 </r>
        <r>  0.0003  0.0084  0.0190  0.0124  0.0000  0.0000  0.0000  0.0000  0.0000 </r>
        <r>  0.0002  0.0314  0.0145  0.0091  0.0000  0.0000  0.0000  0.0000  0.0000 </r>
        <r>  0.0009  0.0566  0.0131  0.0027  0.0000  0.0000  0.0000  0.0000  0.0000 </r>
        <r>  0.0005  0.0331  0.0146  0.0082  0.0000  0.0000  0.0000  0.0000  0.0000 </r>
        <r>  0.0002  0.0257  0.0092  0.0098  0.0000  0.0000  0.0000  0.0000  0.0000 </r>
        <r>  0.0001  0.0070  0.0197  0.0164  0.0000  0.0000  0.0000  0.0000  0.0000 </r>
        <r>  0.0000  0.0017  0.0009  0.0002  0.0000  0.0000  0.0000  0.0000  0.0000 </r>
        <r>  0.0000  0.0001  0.0000  0.0014  0.0000  0.0000  0.0000  0.0000  0.0000 </r>
        <r>  0.0003  0.0008  0.0014  0.0000  0.0000  0.0000  0.0000  0.0000  0.0000 </r>
        <r>  0.0004  0.0000  0.0001  0.0008  0.0000  0.0000  0.0000  0.0000  0.0000 </r>
       </set>
       <set comment="band 32">
        <r>  0.0000  0.0218  0.0451  0.0047  0.0000  0.0000  0.0000  0.0000  0.0000 </r>
        <r>  0.0000  0.0029  0.0451  0.0330  0.0000  0.0000  0.0000  0.0000  0.0000 </r>
        <r>  0.0000  0.0218  0.0037  0.0316  0.0000  0.0000  0.0000  0.0000  0.0000 </r>
        <r>  0.0000  0.0029  0.0039  0.0045  0.0000  0.0000  0.0000  0.0000  0.0000 </r>
        <r>  0.0000  0.0029  0.0451  0.0330  0.0000  0.0000  0.0000  0.0000  0.0000 </r>
        <r>  0.0000  0.0218  0.0452  0.0047  0.0000  0.0000  0.0000  0.0000  0.0000 </r>
        <r>  0.0000  0.0028  0.0039  0.0045  0.0000  0.0000  0.0000  0.0000  0.0000 </r>
        <r>  0.0000  0.0218  0.0037  0.0316  0.0000  0.0000  0.0000  0.0000  0.0000 </r>
        <r>  0.0000  0.0000  0.0000  0.0000  0.0000  0.0000  0.0000  0.0000  0.0000 </r>
        <r>  0.0000  0.0000  0.0000  0.0000  0.0000  0.0000  0.0000  0.0000  0.0000 </r>
        <r>  0.0000  0.0000  0.0000  0.0000  0.0000  0.0000  0.0000  0.0000  0.0000 </r>
        <r>  0.0000  0.0000  0.0000  0.0000  0.0000  0.0000  0.0000  0.0000  0.0000 </r>
       </set>
      </set>
     </set>
    </set>
   </array>
  </projected>
 </calculation>
 <structure name="finalpos" >
  <crystal>
   <varray name="basis" >
    <v>       4.70671600       0.00000000       0.00000000 </v>
    <v>       0.00000000       4.70671600       0.00000000 </v>
    <v>       0.00000000       0.00000000       4.70671600 </v>
   </varray>
   <i name="volume">    104.26870560 </i>
   <varray name="rec_basis" >
    <v>       0.21246236       0.00000000       0.00000000 </v>
    <v>       0.00000000       0.21246236       0.00000000 </v>
    <v>       0.00000000       0.00000000       0.21246236 </v>
   </varray>
  </crystal>
  <varray name="positions" >
   <v>       0.25240300       0.25240300       0.25240300 </v>
   <v>       0.74759700       0.74759700       0.25240300 </v>
   <v>       0.74759700       0.25240300       0.74759700 </v>
   <v>       0.25240300       0.74759700       0.74759700 </v>
   <v>       0.25240300       0.25240300       0.74759700 </v>
   <v>       0.74759700       0.74759700       0.74759700 </v>
   <v>       0.74759700       0.25240300       0.25240300 </v>
   <v>       0.25240300       0.74759700       0.25240300 </v>
   <v>       0.00000000       0.00000000       0.00000000 </v>
   <v>       0.50000000       0.50000000       0.00000000 </v>
   <v>       0.00000000       0.50000000       0.50000000 </v>
   <v>       0.50000000       0.00000000       0.50000000 </v>
  </varray>
 </structure>
</modeling>
