<?xml version="1.0" encoding="ISO-8859-1"?>
<modeling>
 <generator>
  <i name="program" type="string">vasp </i>
  <i name="version" type="string">5.4.4.18Apr17-6-g9f103f2a35  </i>
  <i name="subversion" type="string">(build Apr 25 2017 00:43:00) complex            parallel </i>
  <i name="platform" type="string">LinuxIFC </i>
  <i name="date" type="string">2017 09 29 </i>
  <i name="time" type="string">11:34:32 </i>
 </generator>
 <incar>
  <i type="string" name="SYSTEM"> Si</i>
  <i type="string" name="PREC">normal</i>
  <i type="string" name="ALGO"> BSE</i>
  <i name="EDIFF">      0.00000001</i>
  <i name="ENCUT">    250.00000000</i>
  <i type="int" name="NBANDS">   128</i>
  <i type="int" name="ISMEAR">     0</i>
  <i name="SIGMA">      0.01000000</i>
  <v type="int" name="KPOINT_BSE">    -1     0     0     0</v>
  <i type="int" name="ANTIRES">     0</i>
  <i type="int" name="NBANDSO">     4</i>
  <i type="int" name="NBANDSV">     8</i>
  <i name="OMEGAMAX">     20.00000000</i>
  <i name="ENCUTGW">    150.00000000</i>
  <i type="string" name="PRECFOCK">normal</i>
  <i name="OMEGAMAX">     20.00000000</i>
 </incar>
 <structure name="primitive_cell" >
  <crystal>
   <varray name="basis" >
    <v>       2.71500000       2.71500000       0.00000000 </v>
    <v>       0.00000000       2.71500000       2.71500000 </v>
    <v>       2.71500000       0.00000000       2.71500000 </v>
   </varray>
   <i name="volume">     40.02575175 </i>
   <varray name="rec_basis" >
    <v>       0.18416206       0.18416206      -0.18416206 </v>
    <v>      -0.18416206       0.18416206       0.18416206 </v>
    <v>       0.18416206      -0.18416206       0.18416206 </v>
   </varray>
  </crystal>
  <varray name="positions" >
   <v>       0.00000000       0.00000000       0.00000000 </v>
   <v>       0.25000000       0.25000000       0.25000000 </v>
  </varray>
 </structure>
 <varray name="primitive_index" >
  <v type="int" >        1 </v>
  <v type="int" >        2 </v>
 </varray>
 <kpoints>
  <generation param="Gamma">
   <v type="int" name="divisions">       6        6        6 </v>
   <v name="usershift">      0.00000000       0.00000000       0.00000000 </v>
   <v name="genvec1">      0.16666667       0.00000000       0.00000000 </v>
   <v name="genvec2">      0.00000000       0.16666667       0.00000000 </v>
   <v name="genvec3">      0.00000000       0.00000000       0.16666667 </v>
   <v name="shift">      0.00000000       0.00000000       0.00000000 </v>
  </generation>
  <varray name="kpointlist" >
   <v>       0.00000000       0.00000000       0.00000000 </v>
   <v>       0.16666667       0.00000000       0.00000000 </v>
   <v>       0.33333333       0.00000000       0.00000000 </v>
   <v>       0.50000000       0.00000000       0.00000000 </v>
   <v>       0.16666667       0.16666667       0.00000000 </v>
   <v>       0.33333333       0.16666667       0.00000000 </v>
   <v>       0.50000000       0.16666667       0.00000000 </v>
   <v>      -0.33333333       0.16666667       0.00000000 </v>
   <v>      -0.16666667       0.16666667       0.00000000 </v>
   <v>       0.33333333       0.33333333       0.00000000 </v>
   <v>       0.50000000       0.33333333       0.00000000 </v>
   <v>      -0.33333333       0.33333333       0.00000000 </v>
   <v>       0.50000000       0.50000000       0.00000000 </v>
   <v>       0.50000000       0.33333333       0.16666667 </v>
   <v>      -0.33333333       0.33333333       0.16666667 </v>
   <v>      -0.33333333       0.50000000       0.16666667 </v>
  </varray>
  <varray name="weights" >
   <v>       0.00462963 </v>
   <v>       0.03703704 </v>
   <v>       0.03703704 </v>
   <v>       0.01851852 </v>
   <v>       0.02777778 </v>
   <v>       0.11111111 </v>
   <v>       0.11111111 </v>
   <v>       0.11111111 </v>
   <v>       0.05555556 </v>
   <v>       0.02777778 </v>
   <v>       0.11111111 </v>
   <v>       0.05555556 </v>
   <v>       0.01388889 </v>
   <v>       0.11111111 </v>
   <v>       0.11111111 </v>
   <v>       0.05555556 </v>
  </varray>
 </kpoints>
 <parameters>
  <separator name="general" >
   <i type="string" name="SYSTEM">Si</i>
   <i type="logical" name="LCOMPAT"> F  </i>
  </separator>
  <separator name="electronic" >
   <i type="string" name="PREC">normal</i>
   <i name="ENMAX">    250.00000000</i>
   <i name="ENAUG">    322.06900000</i>
   <i name="EDIFF">      0.00000001</i>
   <i type="int" name="IALGO">    38</i>
   <i type="int" name="IWAVPR">    10</i>
   <i type="int" name="NBANDS">   128</i>
   <i name="NELECT">      8.00000000</i>
   <i type="int" name="TURBO">     0</i>
   <i type="int" name="IRESTART">     0</i>
   <i type="int" name="NREBOOT">     0</i>
   <i type="int" name="NMIN">     0</i>
   <i name="EREF">      0.00000000</i>
   <separator name="electronic smearing" >
    <i type="int" name="ISMEAR">     0</i>
    <i name="SIGMA">      0.01000000</i>
    <i name="KSPACING">      0.50000000</i>
    <i type="logical" name="KGAMMA"> T  </i>
   </separator>
   <separator name="electronic projectors" >
    <i type="logical" name="LREAL"> F  </i>
    <v name="ROPT">      0.00000000</v>
    <i type="int" name="LMAXPAW">  -100</i>
    <i type="int" name="LMAXMIX">     2</i>
    <i type="logical" name="NLSPLINE"> F  </i>
   </separator>
   <separator name="electronic startup" >
    <i type="int" name="ISTART">     1</i>
    <i type="int" name="ICHARG">     0</i>
    <i type="int" name="INIWAV">     1</i>
   </separator>
   <separator name="electronic spin" >
    <i type="int" name="ISPIN">     1</i>
    <i type="logical" name="LNONCOLLINEAR"> F  </i>
    <v name="MAGMOM">      1.00000000      1.00000000</v>
    <i name="NUPDOWN">     -1.00000000</i>
    <i type="logical" name="LSORBIT"> F  </i>
    <v name="SAXIS">      0.00000000      0.00000000      1.00000000</v>
    <i type="logical" name="LSPIRAL"> F  </i>
    <v name="QSPIRAL">      0.00000000      0.00000000      0.00000000</v>
    <i type="logical" name="LZEROZ"> F  </i>
   </separator>
   <separator name="electronic exchange-correlation" >
    <i type="logical" name="LASPH"> F  </i>
    <i type="logical" name="LMETAGGA"> F  </i>
   </separator>
   <separator name="electronic convergence" >
    <i type="int" name="NELM">    60</i>
    <i type="int" name="NELMDL">     0</i>
    <i type="int" name="NELMIN">     2</i>
    <i name="ENINI">    250.00000000</i>
    <separator name="electronic convergence detail" >
     <i type="logical" name="LDIAG"> T  </i>
     <i type="logical" name="LSUBROT"> F  </i>
     <i name="WEIMIN">      0.00000000</i>
     <i name="EBREAK">      0.00000000</i>
     <i name="DEPER">      0.30000000</i>
     <i type="int" name="NRMM">     4</i>
     <i name="TIME">      0.40000000</i>
    </separator>
   </separator>
   <separator name="electronic mixer" >
    <i name="AMIX">      0.40000000</i>
    <i name="BMIX">      1.00000000</i>
    <i name="AMIN">      0.10000000</i>
    <i name="AMIX_MAG">      1.60000000</i>
    <i name="BMIX_MAG">      1.00000000</i>
    <separator name="electronic mixer details" >
     <i type="int" name="IMIX">     1</i>
     <i type="logical" name="MIXFIRST"> F  </i>
     <i type="int" name="MAXMIX">   -45</i>
     <i name="WC">    100.00000000</i>
     <i type="int" name="INIMIX">     1</i>
     <i type="int" name="MIXPRE">     1</i>
     <i type="int" name="MREMOVE">     5</i>
    </separator>
   </separator>
   <separator name="electronic dipolcorrection" >
    <i type="logical" name="LDIPOL"> F  </i>
    <i type="logical" name="LMONO"> F  </i>
    <i type="int" name="IDIPOL">     0</i>
    <i name="EPSILON">      1.00000000</i>
    <v name="DIPOL">   -100.00000000   -100.00000000   -100.00000000</v>
    <i name="EFIELD">      0.00000000</i>
   </separator>
  </separator>
  <separator name="grids" >
   <i type="int" name="NGX">    16</i>
   <i type="int" name="NGY">    16</i>
   <i type="int" name="NGZ">    16</i>
   <i type="int" name="NGXF">    32</i>
   <i type="int" name="NGYF">    32</i>
   <i type="int" name="NGZF">    32</i>
   <i type="logical" name="ADDGRID"> F  </i>
  </separator>
  <separator name="ionic" >
   <i type="int" name="NSW">     0</i>
   <i type="int" name="IBRION">    -1</i>
   <i type="int" name="MDALGO">     0</i>
   <i type="int" name="ISIF">     0</i>
   <i name="PSTRESS">      0.00000000</i>
   <i name="EDIFFG">      0.00000010</i>
   <i type="int" name="NFREE">     0</i>
   <i name="POTIM">      0.50000000</i>
   <i name="SMASS">     -3.00000000</i>
   <i name="SCALEE">      1.00000000</i>
  </separator>
  <separator name="ionic md" >
   <i name="TEBEG">      0.00010000</i>
   <i name="TEEND">      0.00010000</i>
   <i type="int" name="NBLOCK">     1</i>
   <i type="int" name="KBLOCK">     1</i>
   <i type="int" name="NPACO">   256</i>
   <i name="APACO">     16.00000000</i>
  </separator>
  <separator name="symmetry" >
   <i type="int" name="ISYM">     3</i>
   <i name="SYMPREC">      0.00001000</i>
  </separator>
  <separator name="dos" >
   <i type="int" name="LORBIT">     0</i>
   <v name="RWIGS">     -1.00000000</v>
   <i type="int" name="NEDOS">   301</i>
   <i name="EMIN">     10.00000000</i>
   <i name="EMAX">    -10.00000000</i>
   <i name="EFERMI">      0.00000000</i>
  </separator>
  <separator name="writing" >
   <i type="int" name="NWRITE">     2</i>
   <i type="logical" name="LWAVE"> T  </i>
   <i type="logical" name="LDOWNSAMPLE"> F  </i>
   <i type="logical" name="LCHARG"> T  </i>
   <i type="logical" name="LPARD"> F  </i>
   <i type="logical" name="LVTOT"> F  </i>
   <i type="logical" name="LVHAR"> F  </i>
   <i type="logical" name="LELF"> F  </i>
   <i type="logical" name="LOPTICS"> F  </i>
   <v name="STM">      0.00000000      0.00000000      0.00000000      0.00000000      0.00000000      0.00000000      0.00000000</v>
  </separator>
  <separator name="performance" >
   <i type="int" name="NPAR">    16</i>
   <i type="int" name="NSIM">     4</i>
   <i type="int" name="NBLK">    -1</i>
   <i type="logical" name="LPLANE"> T  </i>
   <i type="logical" name="LSCALAPACK"> T  </i>
   <i type="logical" name="LSCAAWARE"> T  </i>
   <i type="logical" name="LSCALU"> F  </i>
   <i type="logical" name="LASYNC"> F  </i>
   <i type="logical" name="LORBITALREAL"> F  </i>
  </separator>
  <separator name="miscellaneous" >
   <i type="int" name="IDIOT">     3</i>
   <i type="int" name="ISPECIAL">     0</i>
   <i type="logical" name="LMUSIC"> F  </i>
   <v name="POMASS">     28.08500000</v>
   <v name="DARWINR">      0.00000000</v>
   <v name="DARWINV">      1.00000000</v>
   <i type="logical" name="LCORR"> T  </i>
  </separator>
  <i type="logical" name="GGA_COMPAT"> T  </i>
  <i type="logical" name="LBERRY"> F  </i>
  <i type="int" name="ICORELEVEL">     0</i>
  <i type="logical" name="LDAU"> F  </i>
  <i type="int" name="I_CONSTRAINED_M">     0</i>
  <separator name="electronic exchange-correlation" >
   <i type="string" name="GGA">--</i>
   <i type="int" name="VOSKOWN">     0</i>
   <i type="logical" name="LHFCALC"> T  </i>
   <i type="string" name="PRECFOCK">normal</i>
   <i type="logical" name="LSYMGRAD"> F  </i>
   <i type="logical" name="LHFONE"> F  </i>
   <i type="logical" name="LRHFCALC"> F  </i>
   <i type="logical" name="LTHOMAS"> F  </i>
   <i type="logical" name="LMODELHF"> F  </i>
   <i name="ENCUT4O">     -1.00000000</i>
   <i type="int" name="EXXOEP">     0</i>
   <i type="int" name="FOURORBIT">     0</i>
   <i name="AEXX">      1.00000000</i>
   <i name="HFALPHA">     -1.00000000</i>
   <i name="MCALPHA">      0.00000000</i>
   <i name="ALDAX">      0.00000000</i>
   <i name="AGGAX">      0.00000000</i>
   <i name="ALDAC">      0.00000000</i>
   <i name="AGGAC">      0.00000000</i>
   <i type="int" name="NKREDX">     1</i>
   <i type="int" name="NKREDY">     1</i>
   <i type="int" name="NKREDZ">     1</i>
   <i type="logical" name="SHIFTRED"> F  </i>
   <i type="logical" name="ODDONLY"> F  </i>
   <i type="logical" name="EVENONLY"> F  </i>
   <i type="int" name="LMAXFOCK">     4</i>
   <i type="int" name="NMAXFOCKAE">     1</i>
   <i type="logical" name="LFOCKAEDFT"> F  </i>
   <i name="HFSCREEN">      0.00000000</i>
   <i name="HFSCREENC">      0.00000000</i>
   <i type="int" name="NBANDSGWLOW">     1</i>
  </separator>
  <separator name="vdW DFT" >
   <i type="logical" name="LUSE_VDW"> F  </i>
   <i name="Zab_VDW">     -0.84910000</i>
   <i name="PARAM1">      0.12340000</i>
   <i name="PARAM2">      1.00000000</i>
   <i name="PARAM3">      0.00000000</i>
  </separator>
  <separator name="model GW" >
   <i type="int" name="MODEL_GW">     0</i>
   <i name="MODEL_EPS0">     12.00772552</i>
   <i name="MODEL_ALPHA">      1.00000000</i>
  </separator>
  <separator name="linear response parameters" >
   <i type="logical" name="LEPSILON"> F  </i>
   <i type="logical" name="LRPA"> F  </i>
   <i type="logical" name="LNABLA"> F  </i>
   <i type="logical" name="LVEL"> F  </i>
   <i type="int" name="KINTER">     0</i>
   <i name="CSHIFT">      0.10000000</i>
   <i name="OMEGAMAX">     20.00000000</i>
   <i name="DEG_THRESHOLD">      0.00200000</i>
   <i name="RTIME">     -0.10000000</i>
   <i name="WPLASMAI">      0.00000000</i>
   <v name="DFIELD">      0.00000000      0.00000000      0.00000000</v>
   <v name="WPLASMA">      0.00000000      0.00000000      0.00000000      0.00000000      0.00000000      0.00000000      0.00000000      0.00000000      0.00000000</v>
  </separator>
  <separator name="orbital magnetization" >
   <i type="logical" name="NUCIND"> F  </i>
   <v name="MAGPOS">      0.00000000      0.00000000      0.00000000</v>
   <i type="logical" name="LNICSALL"> T  </i>
   <i type="logical" name="ORBITALMAG"> F  </i>
   <i type="logical" name="LMAGBLOCH"> F  </i>
   <i type="logical" name="LCHIMAG"> F  </i>
   <i type="logical" name="LGAUGE"> T  </i>
   <i type="int" name="MAGATOM">     0</i>
   <v name="MAGDIPOL">      0.00000000      0.00000000      0.00000000</v>
   <v name="AVECCONST">      0.00000000      0.00000000      0.00000000</v>
  </separator>
  <separator name="response functions" >
   <i type="logical" name="LADDER"> T  </i>
   <i type="logical" name="LRPAFORCE"> F  </i>
   <i type="logical" name="LFXC"> F  </i>
   <i type="logical" name="LHARTREE"> T  </i>
   <i type="int" name="IBSE">     0</i>
   <v type="int" name="KPOINT">    -1     0     0     0</v>
   <i type="logical" name="LTCTE"> F  </i>
   <i type="logical" name="LTETE"> F  </i>
   <i type="logical" name="LTRIPLET"> F  </i>
   <i type="logical" name="LFXCEPS"> F  </i>
   <i type="logical" name="LFXHEG"> F  </i>
   <i type="int" name="NATURALO">     2</i>
   <i type="logical" name="L2ORDER"> F  </i>
   <i type="logical" name="LMP2LT"> F  </i>
   <i type="logical" name="LUSEW"> T  </i>
   <i name="ENCUTGW">    150.00000000</i>
   <i name="ENCUTGWSOFT">    150.00000000</i>
   <i name="ENCUTLF">     -1.00000000</i>
   <i type="int" name="LMAXMP2">    -1</i>
   <i name="SCISSOR">      0.00000000</i>
   <i type="int" name="NOMEGA">     0</i>
   <i type="int" name="NOMEGAR">     0</i>
   <i type="int" name="NBANDSGW">    -1</i>
   <i type="int" name="NBANDSO">     4</i>
   <i type="int" name="NBANDSV">     8</i>
   <i type="int" name="NELM">     1</i>
   <i type="int" name="NELMHF">     1</i>
   <i type="int" name="DIM">     3</i>
   <i type="int" name="ANTIRES">     0</i>
   <i name="OMEGAMAX">     20.00000000</i>
   <i name="OMEGAMIN">    -30.00000000</i>
   <i name="OMEGATL">   -200.00000000</i>
   <i type="int" name="OMEGAGRID">   140</i>
   <i name="CSHIFT">     -0.10000000</i>
   <i type="logical" name="SELFENERGY"> F  </i>
   <i type="logical" name="LSPECTRAL"> F  </i>
   <i type="logical" name="LSPECTRALGW"> F  </i>
   <i type="logical" name="LSINGLES"> F  </i>
   <i type="logical" name="LFERMIGW"> F  </i>
   <i type="logical" name="ODDONLYGW"> F  </i>
   <i type="logical" name="EVENONLYGW"> F  </i>
   <i type="int" name="NKREDLFX">     1</i>
   <i type="int" name="NKREDLFY">     1</i>
   <i type="int" name="NKREDLFZ">     1</i>
   <i type="int" name="MAXMEM">  2800</i>
   <i type="int" name="TELESCOPE">     0</i>
   <i type="int" name="TAUPAR">     1</i>
   <i type="int" name="OMEGAPAR">    -1</i>
   <i name="LAMBDA">      1.00000000</i>
  </separator>
  <separator name="External order field" >
   <i name="OFIELD_KAPPA">      0.00000000</i>
   <v name="OFIELD_K">      0.00000000      0.00000000      0.00000000</v>
   <i name="OFIELD_Q6_NEAR">      0.00000000</i>
   <i name="OFIELD_Q6_FAR">      0.00000000</i>
   <i name="OFIELD_A">      0.00000000</i>
  </separator>
 </parameters>
 <atominfo>
  <atoms>       2 </atoms>
  <types>       1 </types>
  <array name="atoms" >
   <dimension dim="1">ion</dimension>
   <field type="string">element</field>
   <field type="int">atomtype</field>
   <set>
    <rc><c>Si</c><c>   1</c></rc>
    <rc><c>Si</c><c>   1</c></rc>
   </set>
  </array>
  <array name="atomtypes" >
   <dimension dim="1">type</dimension>
   <field type="int">atomspertype</field>
   <field type="string">element</field>
   <field>mass</field>
   <field>valence</field>
   <field type="string">pseudopotential</field>
   <set>
    <rc><c>   2</c><c>Si</c><c>     28.08500000</c><c>      4.00000000</c><c>  PAW_PBE Si 05Jan2001                  </c></rc>
   </set>
  </array>
 </atominfo>
 <structure name="initialpos" >
  <crystal>
   <varray name="basis" >
    <v>       2.71500000       2.71500000       0.00000000 </v>
    <v>       0.00000000       2.71500000       2.71500000 </v>
    <v>       2.71500000       0.00000000       2.71500000 </v>
   </varray>
   <i name="volume">     40.02575175 </i>
   <varray name="rec_basis" >
    <v>       0.18416206       0.18416206      -0.18416206 </v>
    <v>      -0.18416206       0.18416206       0.18416206 </v>
    <v>       0.18416206      -0.18416206       0.18416206 </v>
   </varray>
  </crystal>
  <varray name="positions" >
   <v>       0.00000000       0.00000000       0.00000000 </v>
   <v>       0.25000000       0.25000000       0.25000000 </v>
  </varray>
 </structure>
 <kpoints>
  <generation param="Gamma">
   <v type="int" name="divisions">       6        6        6 </v>
   <v name="usershift">      0.00000000       0.00000000       0.00000000 </v>
   <v name="genvec1">      0.16666667       0.00000000       0.00000000 </v>
   <v name="genvec2">      0.00000000       0.16666667       0.00000000 </v>
   <v name="genvec3">      0.00000000       0.00000000       0.16666667 </v>
   <v name="shift">      0.00000000       0.00000000       0.00000000 </v>
  </generation>
  <varray name="kpointlist" >
   <v>       0.00000000       0.00000000       0.00000000 </v>
   <v>       0.16666667       0.00000000       0.00000000 </v>
   <v>       0.33333333       0.00000000       0.00000000 </v>
   <v>       0.50000000       0.00000000       0.00000000 </v>
   <v>      -0.33333333       0.00000000       0.00000000 </v>
   <v>      -0.16666667       0.00000000       0.00000000 </v>
   <v>       0.00000000       0.16666667       0.00000000 </v>
   <v>       0.16666667       0.16666667       0.00000000 </v>
   <v>       0.33333333       0.16666667       0.00000000 </v>
   <v>       0.50000000       0.16666667       0.00000000 </v>
   <v>      -0.33333333       0.16666667       0.00000000 </v>
   <v>      -0.16666667       0.16666667       0.00000000 </v>
   <v>       0.00000000       0.33333333       0.00000000 </v>
   <v>       0.16666667       0.33333333       0.00000000 </v>
   <v>       0.33333333       0.33333333       0.00000000 </v>
   <v>       0.50000000       0.33333333       0.00000000 </v>
   <v>      -0.33333333       0.33333333       0.00000000 </v>
   <v>      -0.16666667       0.33333333       0.00000000 </v>
   <v>       0.00000000       0.50000000       0.00000000 </v>
   <v>       0.16666667       0.50000000       0.00000000 </v>
   <v>       0.33333333       0.50000000       0.00000000 </v>
   <v>       0.50000000       0.50000000       0.00000000 </v>
   <v>      -0.33333333       0.50000000       0.00000000 </v>
   <v>      -0.16666667       0.50000000       0.00000000 </v>
   <v>       0.00000000      -0.33333333       0.00000000 </v>
   <v>       0.16666667      -0.33333333       0.00000000 </v>
   <v>       0.33333333      -0.33333333       0.00000000 </v>
   <v>       0.50000000      -0.33333333       0.00000000 </v>
   <v>      -0.33333333      -0.33333333       0.00000000 </v>
   <v>      -0.16666667      -0.33333333       0.00000000 </v>
   <v>       0.00000000      -0.16666667       0.00000000 </v>
   <v>       0.16666667      -0.16666667       0.00000000 </v>
   <v>       0.33333333      -0.16666667       0.00000000 </v>
   <v>       0.50000000      -0.16666667       0.00000000 </v>
   <v>      -0.33333333      -0.16666667       0.00000000 </v>
   <v>      -0.16666667      -0.16666667       0.00000000 </v>
   <v>       0.00000000       0.00000000       0.16666667 </v>
   <v>       0.16666667       0.00000000       0.16666667 </v>
   <v>       0.33333333       0.00000000       0.16666667 </v>
   <v>       0.50000000       0.00000000       0.16666667 </v>
   <v>      -0.33333333       0.00000000       0.16666667 </v>
   <v>      -0.16666667       0.00000000       0.16666667 </v>
   <v>       0.00000000       0.16666667       0.16666667 </v>
   <v>       0.16666667       0.16666667       0.16666667 </v>
   <v>       0.33333333       0.16666667       0.16666667 </v>
   <v>       0.50000000       0.16666667       0.16666667 </v>
   <v>      -0.33333333       0.16666667       0.16666667 </v>
   <v>      -0.16666667       0.16666667       0.16666667 </v>
   <v>       0.00000000       0.33333333       0.16666667 </v>
   <v>       0.16666667       0.33333333       0.16666667 </v>
   <v>       0.33333333       0.33333333       0.16666667 </v>
   <v>       0.50000000       0.33333333       0.16666667 </v>
   <v>      -0.33333333       0.33333333       0.16666667 </v>
   <v>      -0.16666667       0.33333333       0.16666667 </v>
   <v>       0.00000000       0.50000000       0.16666667 </v>
   <v>       0.16666667       0.50000000       0.16666667 </v>
   <v>       0.33333333       0.50000000       0.16666667 </v>
   <v>       0.50000000       0.50000000       0.16666667 </v>
   <v>      -0.33333333       0.50000000       0.16666667 </v>
   <v>      -0.16666667       0.50000000       0.16666667 </v>
   <v>       0.00000000      -0.33333333       0.16666667 </v>
   <v>       0.16666667      -0.33333333       0.16666667 </v>
   <v>       0.33333333      -0.33333333       0.16666667 </v>
   <v>       0.50000000      -0.33333333       0.16666667 </v>
   <v>      -0.33333333      -0.33333333       0.16666667 </v>
   <v>      -0.16666667      -0.33333333       0.16666667 </v>
   <v>       0.00000000      -0.16666667       0.16666667 </v>
   <v>       0.16666667      -0.16666667       0.16666667 </v>
   <v>       0.33333333      -0.16666667       0.16666667 </v>
   <v>       0.50000000      -0.16666667       0.16666667 </v>
   <v>      -0.33333333      -0.16666667       0.16666667 </v>
   <v>      -0.16666667      -0.16666667       0.16666667 </v>
   <v>       0.00000000       0.00000000       0.33333333 </v>
   <v>       0.16666667       0.00000000       0.33333333 </v>
   <v>       0.33333333       0.00000000       0.33333333 </v>
   <v>       0.50000000       0.00000000       0.33333333 </v>
   <v>      -0.33333333       0.00000000       0.33333333 </v>
   <v>      -0.16666667       0.00000000       0.33333333 </v>
   <v>       0.00000000       0.16666667       0.33333333 </v>
   <v>       0.16666667       0.16666667       0.33333333 </v>
   <v>       0.33333333       0.16666667       0.33333333 </v>
   <v>       0.50000000       0.16666667       0.33333333 </v>
   <v>      -0.33333333       0.16666667       0.33333333 </v>
   <v>      -0.16666667       0.16666667       0.33333333 </v>
   <v>       0.00000000       0.33333333       0.33333333 </v>
   <v>       0.16666667       0.33333333       0.33333333 </v>
   <v>       0.33333333       0.33333333       0.33333333 </v>
   <v>       0.50000000       0.33333333       0.33333333 </v>
   <v>      -0.33333333       0.33333333       0.33333333 </v>
   <v>      -0.16666667       0.33333333       0.33333333 </v>
   <v>       0.00000000       0.50000000       0.33333333 </v>
   <v>       0.16666667       0.50000000       0.33333333 </v>
   <v>       0.33333333       0.50000000       0.33333333 </v>
   <v>       0.50000000       0.50000000       0.33333333 </v>
   <v>      -0.33333333       0.50000000       0.33333333 </v>
   <v>      -0.16666667       0.50000000       0.33333333 </v>
   <v>       0.00000000      -0.33333333       0.33333333 </v>
   <v>       0.16666667      -0.33333333       0.33333333 </v>
   <v>       0.33333333      -0.33333333       0.33333333 </v>
   <v>       0.50000000      -0.33333333       0.33333333 </v>
   <v>      -0.33333333      -0.33333333       0.33333333 </v>
   <v>      -0.16666667      -0.33333333       0.33333333 </v>
   <v>       0.00000000      -0.16666667       0.33333333 </v>
   <v>       0.16666667      -0.16666667       0.33333333 </v>
   <v>       0.33333333      -0.16666667       0.33333333 </v>
   <v>       0.50000000      -0.16666667       0.33333333 </v>
   <v>      -0.33333333      -0.16666667       0.33333333 </v>
   <v>      -0.16666667      -0.16666667       0.33333333 </v>
   <v>       0.00000000       0.00000000       0.50000000 </v>
   <v>       0.16666667       0.00000000       0.50000000 </v>
   <v>       0.33333333       0.00000000       0.50000000 </v>
   <v>       0.50000000       0.00000000       0.50000000 </v>
   <v>      -0.33333333       0.00000000       0.50000000 </v>
   <v>      -0.16666667       0.00000000       0.50000000 </v>
   <v>       0.00000000       0.16666667       0.50000000 </v>
   <v>       0.16666667       0.16666667       0.50000000 </v>
   <v>       0.33333333       0.16666667       0.50000000 </v>
   <v>       0.50000000       0.16666667       0.50000000 </v>
   <v>      -0.33333333       0.16666667       0.50000000 </v>
   <v>      -0.16666667       0.16666667       0.50000000 </v>
   <v>       0.00000000       0.33333333       0.50000000 </v>
   <v>       0.16666667       0.33333333       0.50000000 </v>
   <v>       0.33333333       0.33333333       0.50000000 </v>
   <v>       0.50000000       0.33333333       0.50000000 </v>
   <v>      -0.33333333       0.33333333       0.50000000 </v>
   <v>      -0.16666667       0.33333333       0.50000000 </v>
   <v>       0.00000000       0.50000000       0.50000000 </v>
   <v>       0.16666667       0.50000000       0.50000000 </v>
   <v>       0.33333333       0.50000000       0.50000000 </v>
   <v>       0.50000000       0.50000000       0.50000000 </v>
   <v>      -0.33333333       0.50000000       0.50000000 </v>
   <v>      -0.16666667       0.50000000       0.50000000 </v>
   <v>       0.00000000      -0.33333333       0.50000000 </v>
   <v>       0.16666667      -0.33333333       0.50000000 </v>
   <v>       0.33333333      -0.33333333       0.50000000 </v>
   <v>       0.50000000      -0.33333333       0.50000000 </v>
   <v>      -0.33333333      -0.33333333       0.50000000 </v>
   <v>      -0.16666667      -0.33333333       0.50000000 </v>
   <v>       0.00000000      -0.16666667       0.50000000 </v>
   <v>       0.16666667      -0.16666667       0.50000000 </v>
   <v>       0.33333333      -0.16666667       0.50000000 </v>
   <v>       0.50000000      -0.16666667       0.50000000 </v>
   <v>      -0.33333333      -0.16666667       0.50000000 </v>
   <v>      -0.16666667      -0.16666667       0.50000000 </v>
   <v>       0.00000000       0.00000000      -0.33333333 </v>
   <v>       0.16666667       0.00000000      -0.33333333 </v>
   <v>       0.33333333       0.00000000      -0.33333333 </v>
   <v>       0.50000000       0.00000000      -0.33333333 </v>
   <v>      -0.33333333       0.00000000      -0.33333333 </v>
   <v>      -0.16666667       0.00000000      -0.33333333 </v>
   <v>       0.00000000       0.16666667      -0.33333333 </v>
   <v>       0.16666667       0.16666667      -0.33333333 </v>
   <v>       0.33333333       0.16666667      -0.33333333 </v>
   <v>       0.50000000       0.16666667      -0.33333333 </v>
   <v>      -0.33333333       0.16666667      -0.33333333 </v>
   <v>      -0.16666667       0.16666667      -0.33333333 </v>
   <v>       0.00000000       0.33333333      -0.33333333 </v>
   <v>       0.16666667       0.33333333      -0.33333333 </v>
   <v>       0.33333333       0.33333333      -0.33333333 </v>
   <v>       0.50000000       0.33333333      -0.33333333 </v>
   <v>      -0.33333333       0.33333333      -0.33333333 </v>
   <v>      -0.16666667       0.33333333      -0.33333333 </v>
   <v>       0.00000000       0.50000000      -0.33333333 </v>
   <v>       0.16666667       0.50000000      -0.33333333 </v>
   <v>       0.33333333       0.50000000      -0.33333333 </v>
   <v>       0.50000000       0.50000000      -0.33333333 </v>
   <v>      -0.33333333       0.50000000      -0.33333333 </v>
   <v>      -0.16666667       0.50000000      -0.33333333 </v>
   <v>       0.00000000      -0.33333333      -0.33333333 </v>
   <v>       0.16666667      -0.33333333      -0.33333333 </v>
   <v>       0.33333333      -0.33333333      -0.33333333 </v>
   <v>       0.50000000      -0.33333333      -0.33333333 </v>
   <v>      -0.33333333      -0.33333333      -0.33333333 </v>
   <v>      -0.16666667      -0.33333333      -0.33333333 </v>
   <v>       0.00000000      -0.16666667      -0.33333333 </v>
   <v>       0.16666667      -0.16666667      -0.33333333 </v>
   <v>       0.33333333      -0.16666667      -0.33333333 </v>
   <v>       0.50000000      -0.16666667      -0.33333333 </v>
   <v>      -0.33333333      -0.16666667      -0.33333333 </v>
   <v>      -0.16666667      -0.16666667      -0.33333333 </v>
   <v>       0.00000000       0.00000000      -0.16666667 </v>
   <v>       0.16666667       0.00000000      -0.16666667 </v>
   <v>       0.33333333       0.00000000      -0.16666667 </v>
   <v>       0.50000000       0.00000000      -0.16666667 </v>
   <v>      -0.33333333       0.00000000      -0.16666667 </v>
   <v>      -0.16666667       0.00000000      -0.16666667 </v>
   <v>       0.00000000       0.16666667      -0.16666667 </v>
   <v>       0.16666667       0.16666667      -0.16666667 </v>
   <v>       0.33333333       0.16666667      -0.16666667 </v>
   <v>       0.50000000       0.16666667      -0.16666667 </v>
   <v>      -0.33333333       0.16666667      -0.16666667 </v>
   <v>      -0.16666667       0.16666667      -0.16666667 </v>
   <v>       0.00000000       0.33333333      -0.16666667 </v>
   <v>       0.16666667       0.33333333      -0.16666667 </v>
   <v>       0.33333333       0.33333333      -0.16666667 </v>
   <v>       0.50000000       0.33333333      -0.16666667 </v>
   <v>      -0.33333333       0.33333333      -0.16666667 </v>
   <v>      -0.16666667       0.33333333      -0.16666667 </v>
   <v>       0.00000000       0.50000000      -0.16666667 </v>
   <v>       0.16666667       0.50000000      -0.16666667 </v>
   <v>       0.33333333       0.50000000      -0.16666667 </v>
   <v>       0.50000000       0.50000000      -0.16666667 </v>
   <v>      -0.33333333       0.50000000      -0.16666667 </v>
   <v>      -0.16666667       0.50000000      -0.16666667 </v>
   <v>       0.00000000      -0.33333333      -0.16666667 </v>
   <v>       0.16666667      -0.33333333      -0.16666667 </v>
   <v>       0.33333333      -0.33333333      -0.16666667 </v>
   <v>       0.50000000      -0.33333333      -0.16666667 </v>
   <v>      -0.33333333      -0.33333333      -0.16666667 </v>
   <v>      -0.16666667      -0.33333333      -0.16666667 </v>
   <v>       0.00000000      -0.16666667      -0.16666667 </v>
   <v>       0.16666667      -0.16666667      -0.16666667 </v>
   <v>       0.33333333      -0.16666667      -0.16666667 </v>
   <v>       0.50000000      -0.16666667      -0.16666667 </v>
   <v>      -0.33333333      -0.16666667      -0.16666667 </v>
   <v>      -0.16666667      -0.16666667      -0.16666667 </v>
  </varray>
  <varray name="weights" >
   <v>       0.00462963 </v>
   <v>       0.00462963 </v>
   <v>       0.00462963 </v>
   <v>       0.00462963 </v>
   <v>       0.00462963 </v>
   <v>       0.00462963 </v>
   <v>       0.00462963 </v>
   <v>       0.00462963 </v>
   <v>       0.00462963 </v>
   <v>       0.00462963 </v>
   <v>       0.00462963 </v>
   <v>       0.00462963 </v>
   <v>       0.00462963 </v>
   <v>       0.00462963 </v>
   <v>       0.00462963 </v>
   <v>       0.00462963 </v>
   <v>       0.00462963 </v>
   <v>       0.00462963 </v>
   <v>       0.00462963 </v>
   <v>       0.00462963 </v>
   <v>       0.00462963 </v>
   <v>       0.00462963 </v>
   <v>       0.00462963 </v>
   <v>       0.00462963 </v>
   <v>       0.00462963 </v>
   <v>       0.00462963 </v>
   <v>       0.00462963 </v>
   <v>       0.00462963 </v>
   <v>       0.00462963 </v>
   <v>       0.00462963 </v>
   <v>       0.00462963 </v>
   <v>       0.00462963 </v>
   <v>       0.00462963 </v>
   <v>       0.00462963 </v>
   <v>       0.00462963 </v>
   <v>       0.00462963 </v>
   <v>       0.00462963 </v>
   <v>       0.00462963 </v>
   <v>       0.00462963 </v>
   <v>       0.00462963 </v>
   <v>       0.00462963 </v>
   <v>       0.00462963 </v>
   <v>       0.00462963 </v>
   <v>       0.00462963 </v>
   <v>       0.00462963 </v>
   <v>       0.00462963 </v>
   <v>       0.00462963 </v>
   <v>       0.00462963 </v>
   <v>       0.00462963 </v>
   <v>       0.00462963 </v>
   <v>       0.00462963 </v>
   <v>       0.00462963 </v>
   <v>       0.00462963 </v>
   <v>       0.00462963 </v>
   <v>       0.00462963 </v>
   <v>       0.00462963 </v>
   <v>       0.00462963 </v>
   <v>       0.00462963 </v>
   <v>       0.00462963 </v>
   <v>       0.00462963 </v>
   <v>       0.00462963 </v>
   <v>       0.00462963 </v>
   <v>       0.00462963 </v>
   <v>       0.00462963 </v>
   <v>       0.00462963 </v>
   <v>       0.00462963 </v>
   <v>       0.00462963 </v>
   <v>       0.00462963 </v>
   <v>       0.00462963 </v>
   <v>       0.00462963 </v>
   <v>       0.00462963 </v>
   <v>       0.00462963 </v>
   <v>       0.00462963 </v>
   <v>       0.00462963 </v>
   <v>       0.00462963 </v>
   <v>       0.00462963 </v>
   <v>       0.00462963 </v>
   <v>       0.00462963 </v>
   <v>       0.00462963 </v>
   <v>       0.00462963 </v>
   <v>       0.00462963 </v>
   <v>       0.00462963 </v>
   <v>       0.00462963 </v>
   <v>       0.00462963 </v>
   <v>       0.00462963 </v>
   <v>       0.00462963 </v>
   <v>       0.00462963 </v>
   <v>       0.00462963 </v>
   <v>       0.00462963 </v>
   <v>       0.00462963 </v>
   <v>       0.00462963 </v>
   <v>       0.00462963 </v>
   <v>       0.00462963 </v>
   <v>       0.00462963 </v>
   <v>       0.00462963 </v>
   <v>       0.00462963 </v>
   <v>       0.00462963 </v>
   <v>       0.00462963 </v>
   <v>       0.00462963 </v>
   <v>       0.00462963 </v>
   <v>       0.00462963 </v>
   <v>       0.00462963 </v>
   <v>       0.00462963 </v>
   <v>       0.00462963 </v>
   <v>       0.00462963 </v>
   <v>       0.00462963 </v>
   <v>       0.00462963 </v>
   <v>       0.00462963 </v>
   <v>       0.00462963 </v>
   <v>       0.00462963 </v>
   <v>       0.00462963 </v>
   <v>       0.00462963 </v>
   <v>       0.00462963 </v>
   <v>       0.00462963 </v>
   <v>       0.00462963 </v>
   <v>       0.00462963 </v>
   <v>       0.00462963 </v>
   <v>       0.00462963 </v>
   <v>       0.00462963 </v>
   <v>       0.00462963 </v>
   <v>       0.00462963 </v>
   <v>       0.00462963 </v>
   <v>       0.00462963 </v>
   <v>       0.00462963 </v>
   <v>       0.00462963 </v>
   <v>       0.00462963 </v>
   <v>       0.00462963 </v>
   <v>       0.00462963 </v>
   <v>       0.00462963 </v>
   <v>       0.00462963 </v>
   <v>       0.00462963 </v>
   <v>       0.00462963 </v>
   <v>       0.00462963 </v>
   <v>       0.00462963 </v>
   <v>       0.00462963 </v>
   <v>       0.00462963 </v>
   <v>       0.00462963 </v>
   <v>       0.00462963 </v>
   <v>       0.00462963 </v>
   <v>       0.00462963 </v>
   <v>       0.00462963 </v>
   <v>       0.00462963 </v>
   <v>       0.00462963 </v>
   <v>       0.00462963 </v>
   <v>       0.00462963 </v>
   <v>       0.00462963 </v>
   <v>       0.00462963 </v>
   <v>       0.00462963 </v>
   <v>       0.00462963 </v>
   <v>       0.00462963 </v>
   <v>       0.00462963 </v>
   <v>       0.00462963 </v>
   <v>       0.00462963 </v>
   <v>       0.00462963 </v>
   <v>       0.00462963 </v>
   <v>       0.00462963 </v>
   <v>       0.00462963 </v>
   <v>       0.00462963 </v>
   <v>       0.00462963 </v>
   <v>       0.00462963 </v>
   <v>       0.00462963 </v>
   <v>       0.00462963 </v>
   <v>       0.00462963 </v>
   <v>       0.00462963 </v>
   <v>       0.00462963 </v>
   <v>       0.00462963 </v>
   <v>       0.00462963 </v>
   <v>       0.00462963 </v>
   <v>       0.00462963 </v>
   <v>       0.00462963 </v>
   <v>       0.00462963 </v>
   <v>       0.00462963 </v>
   <v>       0.00462963 </v>
   <v>       0.00462963 </v>
   <v>       0.00462963 </v>
   <v>       0.00462963 </v>
   <v>       0.00462963 </v>
   <v>       0.00462963 </v>
   <v>       0.00462963 </v>
   <v>       0.00462963 </v>
   <v>       0.00462963 </v>
   <v>       0.00462963 </v>
   <v>       0.00462963 </v>
   <v>       0.00462963 </v>
   <v>       0.00462963 </v>
   <v>       0.00462963 </v>
   <v>       0.00462963 </v>
   <v>       0.00462963 </v>
   <v>       0.00462963 </v>
   <v>       0.00462963 </v>
   <v>       0.00462963 </v>
   <v>       0.00462963 </v>
   <v>       0.00462963 </v>
   <v>       0.00462963 </v>
   <v>       0.00462963 </v>
   <v>       0.00462963 </v>
   <v>       0.00462963 </v>
   <v>       0.00462963 </v>
   <v>       0.00462963 </v>
   <v>       0.00462963 </v>
   <v>       0.00462963 </v>
   <v>       0.00462963 </v>
   <v>       0.00462963 </v>
   <v>       0.00462963 </v>
   <v>       0.00462963 </v>
   <v>       0.00462963 </v>
   <v>       0.00462963 </v>
   <v>       0.00462963 </v>
   <v>       0.00462963 </v>
   <v>       0.00462963 </v>
   <v>       0.00462963 </v>
   <v>       0.00462963 </v>
   <v>       0.00462963 </v>
   <v>       0.00462963 </v>
   <v>       0.00462963 </v>
   <v>       0.00462963 </v>
  </varray>
 </kpoints>
 <varray name="opticaltransitions" >
  <v>      3.084      0.001 </v>
  <v>      3.084      0.001 </v>
  <v>      3.084      0.000 </v>
  <v>      3.087  27781.944 </v>
  <v>      3.087  27801.690 </v>
  <v>      3.087  27764.719 </v>
  <v>      3.097      0.000 </v>
  <v>      3.097      0.001 </v>
  <v>      3.101   1061.068 </v>
  <v>      3.216  97571.194 </v>
  <v>      3.216  97546.735 </v>
  <v>      3.216  97568.968 </v>
  <v>      3.237      0.006 </v>
  <v>      3.237      0.009 </v>
  <v>      3.237      0.008 </v>
  <v>      3.244      0.017 </v>
  <v>      3.244      0.003 </v>
  <v>      3.283      0.005 </v>
  <v>      3.283      0.007 </v>
  <v>      3.283      0.001 </v>
  <v>      3.289      0.000 </v>
  <v>      3.289      0.000 </v>
  <v>      3.289      0.000 </v>
  <v>      3.289      0.000 </v>
  <v>      3.289      0.000 </v>
  <v>      3.294   6462.171 </v>
  <v>      3.294   6461.701 </v>
  <v>      3.294   6462.308 </v>
  <v>      3.295      0.000 </v>
  <v>      3.295      0.000 </v>
  <v>      3.295      0.000 </v>
  <v>      3.299      0.000 </v>
  <v>      3.299      0.001 </v>
  <v>      3.322   1613.046 </v>
  <v>      3.322   1612.293 </v>
  <v>      3.322   1614.642 </v>
  <v>      3.322      0.000 </v>
  <v>      3.322      0.000 </v>
  <v>      3.322      0.000 </v>
  <v>      3.322      0.003 </v>
  <v>      3.322      0.001 </v>
  <v>      3.322      0.000 </v>
  <v>      3.326      0.000 </v>
  <v>      3.326      0.001 </v>
  <v>      3.326      0.000 </v>
  <v>      3.326      0.000 </v>
  <v>      3.326      0.000 </v>
  <v>      3.326      0.000 </v>
  <v>      3.326      0.000 </v>
  <v>      3.379      0.000 </v>
  <v>      3.379      0.001 </v>
  <v>      3.379      0.000 </v>
  <v>      3.380  10540.930 </v>
  <v>      3.380  10528.912 </v>
  <v>      3.380  10554.986 </v>
  <v>      3.381      0.000 </v>
  <v>      3.381      0.001 </v>
  <v>      3.381      0.000 </v>
  <v>      3.387      0.001 </v>
  <v>      3.387      0.000 </v>
  <v>      3.387      0.001 </v>
  <v>      3.620  22848.092 </v>
  <v>      3.620  22845.712 </v>
  <v>      3.620  22850.807 </v>
  <v>      3.621      0.000 </v>
  <v>      3.621      0.006 </v>
  <v>      3.621      0.002 </v>
  <v>      3.623      0.000 </v>
  <v>      3.623      0.000 </v>
  <v>      3.623      0.000 </v>
  <v>      3.630      0.002 </v>
  <v>      3.630      0.001 </v>
  <v>      3.630      0.002 </v>
  <v>      3.950  23181.486 </v>
  <v>      3.950  23171.747 </v>
  <v>      3.950  23182.700 </v>
  <v>      3.999      0.005 </v>
  <v>      3.999      0.001 </v>
  <v>      3.999      0.007 </v>
  <v>      4.010 101264.301 </v>
  <v>      4.010 101319.740 </v>
  <v>      4.010 101321.814 </v>
  <v>      4.054      0.000 </v>
  <v>      4.054      0.000 </v>
  <v>      4.054      0.001 </v>
  <v>      4.062      0.002 </v>
  <v>      4.062      0.005 </v>
  <v>      4.062      0.015 </v>
  <v>      4.096      0.001 </v>
  <v>      4.096      0.002 </v>
  <v>      4.096      0.002 </v>
  <v>      4.098  47866.245 </v>
  <v>      4.098  47819.854 </v>
  <v>      4.098  47825.405 </v>
  <v>      4.110      0.000 </v>
  <v>      4.110      0.000 </v>
  <v>      4.112      0.000 </v>
  <v>      4.112      0.000 </v>
  <v>      4.112      0.000 </v>
  <v>      4.114      0.000 </v>
  <v>      4.129      0.001 </v>
  <v>      4.129      0.000 </v>
  <v>      4.129      0.000 </v>
  <v>      4.131      0.008 </v>
  <v>      4.131      0.006 </v>
  <v>      4.131      0.005 </v>
  <v>      4.132      0.000 </v>
  <v>      4.132      0.000 </v>
  <v>      4.132      0.000 </v>
  <v>      4.132      0.000 </v>
  <v>      4.133      0.017 </v>
  <v>      4.133      0.010 </v>
  <v>      4.140  21437.787 </v>
  <v>      4.140  21391.485 </v>
  <v>      4.140  21542.740 </v>
  <v>      4.144      0.002 </v>
  <v>      4.144      0.000 </v>
  <v>      4.144      0.001 </v>
  <v>      4.162      0.001 </v>
  <v>      4.162      0.001 </v>
  <v>      4.162      0.010 </v>
  <v>      4.164      0.000 </v>
  <v>      4.164      0.000 </v>
  <v>      4.164      0.000 </v>
  <v>      4.190      3.295 </v>
  <v>      4.190      4.640 </v>
  <v>      4.190      0.107 </v>
  <v>      4.190     22.783 </v>
  <v>      4.190      2.475 </v>
  <v>      4.190      4.023 </v>
  <v>      4.191      0.001 </v>
  <v>      4.191      0.012 </v>
  <v>      4.191      0.007 </v>
  <v>      4.194      4.256 </v>
  <v>      4.194      0.152 </v>
  <v>      4.197      0.000 </v>
  <v>      4.197      0.000 </v>
  <v>      4.197      0.000 </v>
  <v>      4.202      0.000 </v>
  <v>      4.202      0.000 </v>
  <v>      4.202      0.000 </v>
  <v>      4.202      0.000 </v>
  <v>      4.202      0.000 </v>
  <v>      4.203   6899.587 </v>
  <v>      4.203   6974.844 </v>
  <v>      4.203   6902.633 </v>
  <v>      4.203      0.004 </v>
  <v>      4.203      0.002 </v>
  <v>      4.203      0.005 </v>
  <v>      4.203      0.000 </v>
  <v>      4.205      0.000 </v>
  <v>      4.205      0.000 </v>
  <v>      4.205      1.088 </v>
  <v>      4.206      0.000 </v>
  <v>      4.206      0.000 </v>
  <v>      4.207      0.000 </v>
  <v>      4.207      0.000 </v>
  <v>      4.207      0.000 </v>
  <v>      4.207      0.003 </v>
  <v>      4.207      0.002 </v>
  <v>      4.207      0.019 </v>
  <v>      4.207   1489.453 </v>
  <v>      4.207   1396.102 </v>
  <v>      4.207   1449.311 </v>
  <v>      4.209      0.000 </v>
  <v>      4.210      7.567 </v>
  <v>      4.210      0.892 </v>
  <v>      4.210      1.163 </v>
  <v>      4.212      7.438 </v>
  <v>      4.212      1.512 </v>
  <v>      4.212      0.818 </v>
  <v>      4.215      0.297 </v>
  <v>      4.215      2.477 </v>
  <v>      4.217    922.130 </v>
  <v>      4.217    926.920 </v>
  <v>      4.217    938.167 </v>
  <v>      4.218      0.002 </v>
  <v>      4.218      0.000 </v>
  <v>      4.218      0.002 </v>
  <v>      4.218      0.000 </v>
  <v>      4.218      0.000 </v>
  <v>      4.218      0.000 </v>
  <v>      4.219      0.000 </v>
  <v>      4.219      0.000 </v>
  <v>      4.219      0.000 </v>
  <v>      4.219      0.000 </v>
  <v>      4.219      0.000 </v>
  <v>      4.220      0.000 </v>
  <v>      4.221      0.000 </v>
  <v>      4.221      0.000 </v>
  <v>      4.221      0.000 </v>
  <v>      4.222      0.000 </v>
  <v>      4.226     46.900 </v>
  <v>      4.226     13.959 </v>
  <v>      4.226     12.914 </v>
  <v>      4.227     18.597 </v>
  <v>      4.227      1.799 </v>
  <v>      4.229     40.724 </v>
  <v>      4.292  11116.383 </v>
  <v>      4.292  11116.787 </v>
  <v>      4.292  11122.673 </v>
  <v>      4.295      0.000 </v>
  <v>      4.295      0.001 </v>
  <v>      4.295      0.002 </v>
  <v>      4.299      0.000 </v>
  <v>      4.299      0.000 </v>
  <v>      4.300      0.000 </v>
  <v>      4.300      0.000 </v>
  <v>      4.300      0.001 </v>
  <v>      4.301      0.000 </v>
  <v>      4.304      0.002 </v>
  <v>      4.304      0.004 </v>
  <v>      4.306      0.004 </v>
  <v>      4.306      0.001 </v>
  <v>      4.306      0.002 </v>
  <v>      4.309      0.000 </v>
  <v>      4.311      0.000 </v>
  <v>      4.311      0.000 </v>
  <v>      4.311      0.000 </v>
  <v>      4.311      0.009 </v>
  <v>      4.311      0.008 </v>
  <v>      4.311      0.009 </v>
  <v>      4.356      0.000 </v>
  <v>      4.356      0.000 </v>
  <v>      4.356      0.000 </v>
  <v>      4.357   4797.822 </v>
  <v>      4.357   4797.264 </v>
  <v>      4.357   4799.915 </v>
  <v>      4.358      0.000 </v>
  <v>      4.358      0.001 </v>
  <v>      4.358      0.001 </v>
  <v>      4.358      0.000 </v>
  <v>      4.358      0.000 </v>
  <v>      4.358      0.000 </v>
  <v>      4.362      0.000 </v>
  <v>      4.362      0.000 </v>
  <v>      4.362      0.000 </v>
  <v>      4.362      0.000 </v>
  <v>      4.362      0.000 </v>
  <v>      4.363      0.001 </v>
  <v>      4.363      0.001 </v>
  <v>      4.363      0.002 </v>
  <v>      4.363      0.000 </v>
  <v>      4.363      0.000 </v>
  <v>      4.363      0.000 </v>
  <v>      4.364      0.000 </v>
  <v>      4.426      0.343 </v>
  <v>      4.426      0.410 </v>
  <v>      4.426      0.674 </v>
  <v>      4.431      0.026 </v>
  <v>      4.431      0.071 </v>
  <v>      4.432      0.003 </v>
  <v>      4.432      0.002 </v>
  <v>      4.432      0.027 </v>
  <v>      4.433    332.514 </v>
  <v>      4.433    332.021 </v>
  <v>      4.433    316.046 </v>
  <v>      4.433      0.149 </v>
  <v>      4.433      0.247 </v>
  <v>      4.433      0.090 </v>
  <v>      4.437      0.000 </v>
  <v>      4.437      0.000 </v>
  <v>      4.438      0.034 </v>
  <v>      4.438      0.015 </v>
  <v>      4.438      0.042 </v>
  <v>      4.439      0.000 </v>
  <v>      4.441   1037.452 </v>
  <v>      4.441   1036.242 </v>
  <v>      4.441   1046.853 </v>
  <v>      4.449      0.142 </v>
  <v>      4.693   4288.379 </v>
  <v>      4.693   4129.304 </v>
  <v>      4.693   4379.168 </v>
  <v>      4.696      3.913 </v>
  <v>      4.696      2.425 </v>
  <v>      4.696     12.198 </v>
  <v>      4.696      1.441 </v>
  <v>      4.696      6.761 </v>
  <v>      4.696     15.996 </v>
  <v>      4.699      4.639 </v>
  <v>      4.699      4.689 </v>
  <v>      4.710      1.690 </v>
  <v>      4.896      0.009 </v>
  <v>      4.896      0.009 </v>
  <v>      4.897      0.042 </v>
  <v>      4.897      0.025 </v>
  <v>      4.897      0.030 </v>
  <v>      4.898      0.006 </v>
  <v>      4.898      0.006 </v>
  <v>      4.898      0.008 </v>
  <v>      4.899      0.000 </v>
  <v>      4.899      0.001 </v>
  <v>      4.899      0.000 </v>
  <v>      4.906      0.000 </v>
  <v>      4.932      0.000 </v>
  <v>      4.932      0.000 </v>
  <v>      4.932      0.000 </v>
  <v>      4.936      0.009 </v>
  <v>      4.936      0.022 </v>
  <v>      4.936      0.026 </v>
  <v>      4.938   4927.039 </v>
  <v>      4.938   4948.214 </v>
  <v>      4.938   4962.124 </v>
  <v>      4.941      0.000 </v>
  <v>      4.941      0.001 </v>
  <v>      4.941      0.005 </v>
  <v>      5.078      0.008 </v>
  <v>      5.078      0.001 </v>
  <v>      5.078      0.003 </v>
  <v>      5.078    180.675 </v>
  <v>      5.078    155.413 </v>
  <v>      5.078     13.825 </v>
  <v>      5.085      0.015 </v>
  <v>      5.085      0.068 </v>
  <v>      5.085      0.014 </v>
  <v>      5.089      0.143 </v>
  <v>      5.089      0.030 </v>
  <v>      5.090      0.000 </v>
  <v>      5.100  15688.584 </v>
  <v>      5.100  15531.089 </v>
  <v>      5.100  15310.883 </v>
  <v>      5.108      0.000 </v>
  <v>      5.108      0.000 </v>
  <v>      5.108      0.000 </v>
  <v>      5.108      0.000 </v>
  <v>      5.108      0.000 </v>
  <v>      5.108      0.015 </v>
  <v>      5.108      0.008 </v>
  <v>      5.108      0.003 </v>
  <v>      5.109      0.000 </v>
  <v>      5.109      0.000 </v>
  <v>      5.109      0.002 </v>
  <v>      5.109      0.000 </v>
  <v>      5.109      0.000 </v>
  <v>      5.111      0.005 </v>
  <v>      5.111      0.005 </v>
  <v>      5.111      0.005 </v>
  <v>      5.119    148.925 </v>
  <v>      5.159     78.877 </v>
  <v>      5.159     73.749 </v>
  <v>      5.159     89.505 </v>
  <v>      5.159      0.501 </v>
  <v>      5.159      0.179 </v>
  <v>      5.159      0.000 </v>
  <v>      5.159      0.000 </v>
  <v>      5.159      0.002 </v>
  <v>      5.159      0.227 </v>
  <v>      5.159      0.049 </v>
  <v>      5.159      0.022 </v>
  <v>      5.160      0.003 </v>
  <v>      5.160      0.004 </v>
  <v>      5.160      0.001 </v>
  <v>      5.161      0.000 </v>
  <v>      5.162   1844.620 </v>
  <v>      5.162   1834.538 </v>
  <v>      5.162   1818.009 </v>
  <v>      5.163     15.864 </v>
  <v>      5.178      1.576 </v>
  <v>      5.178     10.529 </v>
  <v>      5.180      0.000 </v>
  <v>      5.180      0.022 </v>
  <v>      5.180      0.005 </v>
  <v>      5.181   1154.215 </v>
  <v>      5.181   1157.700 </v>
  <v>      5.181   1284.626 </v>
  <v>      5.187      8.688 </v>
  <v>      5.196      0.045 </v>
  <v>      5.196      0.035 </v>
  <v>      5.196      0.043 </v>
  <v>      5.197      4.089 </v>
  <v>      5.197     12.225 </v>
  <v>      5.197     13.809 </v>
  <v>      5.198    409.475 </v>
  <v>      5.198    346.282 </v>
  <v>      5.198    340.406 </v>
  <v>      5.198      0.000 </v>
  <v>      5.198      0.000 </v>
  <v>      5.198      0.000 </v>
  <v>      5.264    335.863 </v>
  <v>      5.264    296.092 </v>
  <v>      5.264    264.237 </v>
  <v>      5.267      0.016 </v>
  <v>      5.267      0.014 </v>
  <v>      5.267      0.005 </v>
  <v>      5.269      0.000 </v>
  <v>      5.278     15.475 </v>
  <v>      5.335      8.097 </v>
  <v>      5.335      1.985 </v>
  <v>      5.337      1.595 </v>
  <v>      5.337     23.311 </v>
  <v>      5.337      3.427 </v>
  <v>      5.337      0.019 </v>
  <v>      5.337      0.024 </v>
  <v>      5.337      0.020 </v>
  <v>      5.337      0.000 </v>
  <v>      5.337      0.000 </v>
  <v>      5.337      0.000 </v>
  <v>      5.338      0.000 </v>
  <v>      5.338      0.000 </v>
  <v>      5.339    494.904 </v>
  <v>      5.339    559.708 </v>
  <v>      5.339    555.920 </v>
  <v>      5.339      0.000 </v>
  <v>      5.343      0.014 </v>
  <v>      5.343      0.020 </v>
  <v>      5.343      0.015 </v>
  <v>      5.345    461.527 </v>
  <v>      5.345    362.663 </v>
  <v>      5.345    419.875 </v>
  <v>      5.355      2.087 </v>
  <v>      5.665      0.041 </v>
  <v>      5.665      0.021 </v>
  <v>      5.665     14.498 </v>
  <v>      5.665     14.589 </v>
  <v>      5.665     14.505 </v>
  <v>      5.667      0.002 </v>
  <v>      5.667      0.000 </v>
  <v>      5.667      0.005 </v>
  <v>      5.670      0.006 </v>
  <v>      5.670      0.050 </v>
  <v>      5.670      0.008 </v>
  <v>      5.673   6122.153 </v>
  <v>      5.673   6107.690 </v>
  <v>      5.673   6127.126 </v>
  <v>      5.674      0.001 </v>
  <v>      5.675     63.692 </v>
  <v>      5.675     63.368 </v>
  <v>      5.675     63.120 </v>
  <v>      5.676      0.000 </v>
  <v>      5.676      0.000 </v>
  <v>      5.676      0.000 </v>
  <v>      5.679      0.004 </v>
  <v>      5.679      0.003 </v>
  <v>      5.684      0.711 </v>
  <v>      5.786      0.002 </v>
  <v>      5.786      0.002 </v>
  <v>      5.786      0.006 </v>
  <v>      5.801      0.000 </v>
  <v>      5.801      0.000 </v>
  <v>      5.801      0.000 </v>
  <v>      5.806      0.973 </v>
  <v>      5.806      0.576 </v>
  <v>      5.806      0.162 </v>
  <v>      5.806      0.004 </v>
  <v>      5.812      0.028 </v>
  <v>      5.812      0.062 </v>
  <v>      5.823      0.010 </v>
  <v>      5.823      0.001 </v>
  <v>      5.823      0.004 </v>
  <v>      5.823    760.617 </v>
  <v>      5.823    760.220 </v>
  <v>      5.823    758.050 </v>
  <v>      5.824      0.000 </v>
  <v>      5.824      0.000 </v>
  <v>      5.825      0.000 </v>
  <v>      5.825      0.000 </v>
  <v>      5.825      0.000 </v>
  <v>      5.825      0.000 </v>
  <v>      5.949      0.054 </v>
  <v>      5.949      0.023 </v>
  <v>      5.951      0.007 </v>
  <v>      5.951      0.007 </v>
  <v>      5.951      0.117 </v>
  <v>      5.952      0.001 </v>
  <v>      5.952      0.002 </v>
  <v>      5.952      0.001 </v>
  <v>      5.955      0.065 </v>
  <v>      5.955      0.038 </v>
  <v>      5.955      0.058 </v>
  <v>      5.956      0.000 </v>
  <v>      5.956      0.000 </v>
  <v>      5.959      0.004 </v>
  <v>      5.959      0.004 </v>
  <v>      5.959      0.056 </v>
  <v>      5.960      0.002 </v>
  <v>      5.960      0.008 </v>
  <v>      5.960      0.002 </v>
  <v>      5.960      0.000 </v>
  <v>      5.961      0.000 </v>
  <v>      5.964    383.095 </v>
  <v>      5.964    381.894 </v>
  <v>      5.964    382.727 </v>
  <v>      6.006      1.183 </v>
  <v>      6.006      1.174 </v>
  <v>      6.006     18.477 </v>
  <v>      6.019      1.972 </v>
  <v>      6.019      3.263 </v>
  <v>      6.022   3369.122 </v>
  <v>      6.022   3312.880 </v>
  <v>      6.022   3226.228 </v>
  <v>      6.024      3.354 </v>
  <v>      6.024      7.710 </v>
  <v>      6.024      7.941 </v>
  <v>      6.039   4057.714 </v>
  <v>      6.039   4024.913 </v>
  <v>      6.039   4050.846 </v>
  <v>      6.043      0.014 </v>
  <v>      6.043      0.021 </v>
  <v>      6.043      0.185 </v>
  <v>      6.044      8.805 </v>
  <v>      6.045      0.171 </v>
  <v>      6.045      0.161 </v>
  <v>      6.045      2.654 </v>
  <v>      6.047      0.580 </v>
  <v>      6.047      0.126 </v>
  <v>      6.047      0.033 </v>
  <v>      6.057      4.562 </v>
  <v>      6.057      0.719 </v>
  <v>      6.057      0.442 </v>
  <v>      6.058      0.000 </v>
  <v>      6.058      0.000 </v>
  <v>      6.059      0.000 </v>
  <v>      6.059      2.717 </v>
  <v>      6.059      1.931 </v>
  <v>      6.059      0.526 </v>
  <v>      6.061      0.863 </v>
  <v>      6.061      0.246 </v>
  <v>      6.061      0.264 </v>
  <v>      6.063      7.545 </v>
  <v>      6.063     12.649 </v>
  <v>      6.064      1.900 </v>
  <v>      6.064     12.816 </v>
  <v>      6.064      1.498 </v>
  <v>      6.065      6.300 </v>
  <v>      6.065      1.923 </v>
  <v>      6.065      5.294 </v>
  <v>      6.065      6.848 </v>
  <v>      6.065     81.237 </v>
  <v>      6.065     81.435 </v>
  <v>      6.065     49.124 </v>
  <v>      6.086      0.000 </v>
  <v>      6.086      0.000 </v>
  <v>      6.089      0.213 </v>
  <v>      6.089      0.053 </v>
  <v>      6.089      0.018 </v>
  <v>      6.090      0.345 </v>
  <v>      6.090      1.167 </v>
  <v>      6.094      2.161 </v>
  <v>      6.094      0.636 </v>
  <v>      6.094      0.269 </v>
  <v>      6.097   2658.212 </v>
  <v>      6.097   2630.985 </v>
  <v>      6.097   2656.852 </v>
  <v>      6.098      0.000 </v>
  <v>      6.101      0.000 </v>
  <v>      6.101      0.000 </v>
  <v>      6.105      0.000 </v>
  <v>      6.108      0.000 </v>
  <v>      6.109     27.591 </v>
  <v>      6.109    151.148 </v>
  <v>      6.109    486.803 </v>
  <v>      6.109     43.904 </v>
  <v>      6.109    211.447 </v>
  <v>      6.111    154.439 </v>
  <v>      6.127     66.476 </v>
  <v>      6.127    102.836 </v>
  <v>      6.127     78.505 </v>
  <v>      6.130      0.001 </v>
  <v>      6.130      0.000 </v>
  <v>      6.130      0.000 </v>
  <v>      6.132      3.271 </v>
  <v>      6.132      4.493 </v>
  <v>      6.134     13.776 </v>
  <v>      6.134      3.431 </v>
  <v>      6.134      5.749 </v>
  <v>      6.139      6.550 </v>
  <v>      6.139     11.744 </v>
  <v>      6.139      8.348 </v>
  <v>      6.141      0.000 </v>
  <v>      6.141      0.000 </v>
  <v>      6.142      0.000 </v>
  <v>      6.143   5714.107 </v>
  <v>      6.143   5876.701 </v>
  <v>      6.143   6050.132 </v>
  <v>      6.144      0.395 </v>
  <v>      6.144      1.229 </v>
  <v>      6.144      0.541 </v>
  <v>      6.150     11.870 </v>
  <v>      6.150      5.922 </v>
  <v>      6.150      1.193 </v>
  <v>      6.151      0.001 </v>
  <v>      6.151      0.005 </v>
  <v>      6.151      0.001 </v>
  <v>      6.157    155.585 </v>
  <v>      6.157    149.557 </v>
  <v>      6.157    143.334 </v>
  <v>      6.157      1.471 </v>
  <v>      6.158      0.027 </v>
  <v>      6.158      0.025 </v>
  <v>      6.158      0.392 </v>
  <v>      6.159      2.510 </v>
  <v>      6.159      0.709 </v>
  <v>      6.160      0.000 </v>
  <v>      6.160      0.000 </v>
  <v>      6.173     58.778 </v>
  <v>      6.173     37.721 </v>
  <v>      6.173     76.146 </v>
  <v>      6.175      0.016 </v>
  <v>      6.175     25.487 </v>
  <v>      6.208     91.240 </v>
  <v>      6.379   6753.163 </v>
  <v>      6.379   6757.260 </v>
  <v>      6.379   6746.660 </v>
  <v>      6.382      0.014 </v>
  <v>      6.382      0.015 </v>
  <v>      6.382      0.261 </v>
  <v>      6.390      0.000 </v>
  <v>      6.390      0.002 </v>
  <v>      6.390      0.000 </v>
  <v>      6.392      0.001 </v>
  <v>      6.392      0.000 </v>
  <v>      6.392      0.000 </v>
  <v>      6.394      0.000 </v>
  <v>      6.396      0.000 </v>
  <v>      6.396      0.000 </v>
  <v>      6.398      0.001 </v>
  <v>      6.398      0.013 </v>
  <v>      6.398      0.026 </v>
  <v>      6.398      0.011 </v>
  <v>      6.398      0.049 </v>
  <v>      6.398      0.018 </v>
  <v>      6.398      0.035 </v>
  <v>      6.405      0.002 </v>
  <v>      6.405      0.001 </v>
  <v>      6.432    878.456 </v>
  <v>      6.432    881.750 </v>
  <v>      6.432    883.587 </v>
  <v>      6.433      0.000 </v>
  <v>      6.433      0.000 </v>
  <v>      6.439      0.002 </v>
  <v>      6.439      0.002 </v>
  <v>      6.439      0.027 </v>
  <v>      6.447      0.011 </v>
  <v>      6.447      0.089 </v>
  <v>      6.449      0.000 </v>
  <v>      6.449      0.000 </v>
  <v>      6.449      0.000 </v>
  <v>      6.450      0.028 </v>
  <v>      6.450      0.021 </v>
  <v>      6.450      0.004 </v>
  <v>      6.457      0.004 </v>
  <v>      6.457      0.004 </v>
  <v>      6.457      0.001 </v>
  <v>      6.458      0.000 </v>
  <v>      6.458      0.000 </v>
  <v>      6.459      0.036 </v>
  <v>      6.459      0.043 </v>
  <v>      6.460      0.008 </v>
  <v>      6.460      0.009 </v>
  <v>      6.460      0.152 </v>
  <v>      6.461      0.001 </v>
  <v>      6.461      0.000 </v>
  <v>      6.461      0.000 </v>
  <v>      6.461      0.062 </v>
  <v>      6.461      0.066 </v>
  <v>      6.461      0.925 </v>
  <v>      6.462      0.000 </v>
  <v>      6.462    422.970 </v>
  <v>      6.462    422.384 </v>
  <v>      6.462    420.159 </v>
  <v>      6.463      0.165 </v>
  <v>      6.463      0.037 </v>
  <v>      6.463      0.020 </v>
  <v>      6.465      0.000 </v>
  <v>      6.494      1.588 </v>
  <v>      6.494      1.454 </v>
  <v>      6.494     24.953 </v>
  <v>      6.500      5.592 </v>
  <v>      6.500      4.569 </v>
  <v>      6.501    251.750 </v>
  <v>      6.501    220.107 </v>
  <v>      6.501    263.779 </v>
  <v>      6.503      4.978 </v>
  <v>      6.503      8.242 </v>
  <v>      6.503     11.271 </v>
  <v>      6.506      3.827 </v>
  <v>      6.508      0.000 </v>
  <v>      6.508      0.000 </v>
  <v>      6.520      0.000 </v>
  <v>      6.520      0.001 </v>
  <v>      6.520      0.000 </v>
  <v>      6.526    868.026 </v>
  <v>      6.526    842.812 </v>
  <v>      6.526    852.100 </v>
  <v>      6.530      0.097 </v>
  <v>      6.530      0.096 </v>
  <v>      6.530      1.516 </v>
  <v>      6.537      0.039 </v>
  <v>      6.537      0.056 </v>
  <v>      6.537      0.029 </v>
  <v>      6.539      0.000 </v>
  <v>      6.539      0.000 </v>
  <v>      6.539      0.001 </v>
  <v>      6.539      0.000 </v>
  <v>      6.539      0.000 </v>
  <v>      6.544      0.000 </v>
  <v>      6.544    726.931 </v>
  <v>      6.544    720.929 </v>
  <v>      6.544    720.367 </v>
  <v>      6.545      0.000 </v>
  <v>      6.548      0.000 </v>
  <v>      6.548      0.000 </v>
  <v>      6.549   7202.094 </v>
  <v>      6.549   7196.696 </v>
  <v>      6.549   7214.308 </v>
  <v>      6.549      0.143 </v>
  <v>      6.549      0.065 </v>
  <v>      6.549      0.110 </v>
  <v>      6.551      0.004 </v>
  <v>      6.551      0.011 </v>
  <v>      6.551      0.003 </v>
  <v>      6.558      0.000 </v>
  <v>      6.609   4935.051 </v>
  <v>      6.609   4970.020 </v>
  <v>      6.609   4954.069 </v>
  <v>      6.612      0.000 </v>
  <v>      6.612      0.000 </v>
  <v>      6.617      0.000 </v>
  <v>      6.619      0.000 </v>
  <v>      6.619      0.000 </v>
  <v>      6.619      0.002 </v>
  <v>      6.621      0.113 </v>
  <v>      6.621      0.145 </v>
  <v>      6.621      0.840 </v>
  <v>      6.623      0.535 </v>
  <v>      6.623      0.303 </v>
  <v>      6.625      0.042 </v>
  <v>      6.625      0.143 </v>
  <v>      6.625      0.075 </v>
  <v>      6.626      0.015 </v>
  <v>      6.626      0.034 </v>
  <v>      6.626      0.013 </v>
  <v>      6.626      0.004 </v>
  <v>      6.626    927.352 </v>
  <v>      6.626    922.463 </v>
  <v>      6.626    935.181 </v>
  <v>      6.630      0.134 </v>
  <v>      6.630      0.031 </v>
  <v>      6.630      0.075 </v>
  <v>      6.632      0.000 </v>
  <v>      6.632      0.000 </v>
  <v>      6.638      0.010 </v>
  <v>      6.638      0.011 </v>
  <v>      6.638      0.023 </v>
  <v>      6.639      0.003 </v>
  <v>      6.639      0.003 </v>
  <v>      6.639      0.040 </v>
  <v>      6.640      0.000 </v>
  <v>      6.640      0.000 </v>
  <v>      6.640      0.000 </v>
  <v>      6.647   5951.532 </v>
  <v>      6.647   5961.036 </v>
  <v>      6.647   5967.849 </v>
  <v>      6.647      0.026 </v>
  <v>      6.647      0.043 </v>
  <v>      6.648      0.047 </v>
  <v>      6.648      0.026 </v>
  <v>      6.648      0.027 </v>
  <v>      6.648      0.005 </v>
  <v>      6.651      0.000 </v>
  <v>      6.752      0.000 </v>
  <v>      6.752      0.000 </v>
  <v>      6.752   2078.562 </v>
  <v>      6.752   2078.147 </v>
  <v>      6.752   2086.120 </v>
  <v>      6.754      0.009 </v>
  <v>      6.754      0.010 </v>
  <v>      6.754      0.062 </v>
  <v>      6.759      0.000 </v>
  <v>      6.759      0.000 </v>
  <v>      6.759      0.000 </v>
  <v>      6.760      0.000 </v>
  <v>      6.760      0.000 </v>
  <v>      6.760      0.000 </v>
  <v>      6.760      0.000 </v>
  <v>      6.760      0.000 </v>
  <v>      6.761      0.013 </v>
  <v>      6.761      0.044 </v>
  <v>      6.761      0.006 </v>
  <v>      6.762      0.000 </v>
  <v>      6.763      0.000 </v>
  <v>      6.764      0.105 </v>
  <v>      6.764      0.130 </v>
  <v>      6.764      0.131 </v>
  <v>      6.822      0.010 </v>
  <v>      6.822      0.013 </v>
  <v>      6.827  10757.117 </v>
  <v>      6.827  10740.813 </v>
  <v>      6.827  10727.565 </v>
  <v>      6.828      0.001 </v>
  <v>      6.828      0.001 </v>
  <v>      6.828      0.008 </v>
  <v>      6.828      0.000 </v>
  <v>      6.828      0.000 </v>
  <v>      6.828      0.000 </v>
  <v>      6.828      0.004 </v>
  <v>      6.828      0.001 </v>
  <v>      6.830      0.028 </v>
  <v>      6.830      0.001 </v>
  <v>      6.830      0.044 </v>
  <v>      6.832      0.003 </v>
  <v>      6.832      0.002 </v>
  <v>      6.832      0.009 </v>
  <v>      6.833      0.039 </v>
  <v>      6.833      0.043 </v>
  <v>      6.833      0.053 </v>
  <v>      6.834      0.000 </v>
  <v>      6.834      0.001 </v>
  <v>      6.838      0.000 </v>
  <v>      6.838      0.000 </v>
  <v>      6.842      0.003 </v>
  <v>      6.842      0.002 </v>
  <v>      6.842      0.016 </v>
  <v>      6.843   6082.800 </v>
  <v>      6.843   6059.655 </v>
  <v>      6.843   6072.793 </v>
  <v>      6.848      0.156 </v>
  <v>      6.848      0.142 </v>
  <v>      6.848      0.104 </v>
  <v>      6.871      0.000 </v>
  <v>      6.877      0.000 </v>
  <v>      6.879      0.000 </v>
  <v>      6.879      0.000 </v>
  <v>      6.882      0.522 </v>
  <v>      6.882      0.303 </v>
  <v>      6.882      0.637 </v>
  <v>      6.882      0.039 </v>
  <v>      6.882      0.085 </v>
  <v>      6.882      0.046 </v>
  <v>      6.884      0.718 </v>
  <v>      6.884      0.401 </v>
  <v>      6.886      0.000 </v>
  <v>      6.886   1237.017 </v>
  <v>      6.886   1251.905 </v>
  <v>      6.886   1246.513 </v>
  <v>      6.887     48.416 </v>
  <v>      6.887     50.379 </v>
  <v>      6.887     47.667 </v>
  <v>      6.887      0.059 </v>
  <v>      6.888      0.035 </v>
  <v>      6.888      0.015 </v>
  <v>      6.888      0.050 </v>
  <v>      6.888      0.001 </v>
  <v>      6.888      0.004 </v>
  <v>      6.888      0.001 </v>
  <v>      6.889     35.768 </v>
  <v>      6.889     33.599 </v>
  <v>      6.889     30.565 </v>
  <v>      6.890      0.023 </v>
  <v>      6.890      0.106 </v>
  <v>      6.890      0.001 </v>
  <v>      6.892      1.596 </v>
  <v>      6.892      0.486 </v>
  <v>      6.892      0.303 </v>
  <v>      6.894      0.001 </v>
  <v>      6.894      0.008 </v>
  <v>      6.894      0.006 </v>
  <v>      6.894      0.000 </v>
  <v>      6.894      0.000 </v>
  <v>      6.894     36.667 </v>
  <v>      6.894     34.882 </v>
  <v>      6.894     37.616 </v>
  <v>      6.897      1.003 </v>
  <v>      6.897      0.792 </v>
  <v>      6.897      0.753 </v>
  <v>      6.898      0.014 </v>
  <v>      6.898      0.112 </v>
  <v>      6.898      0.036 </v>
  <v>      6.898      1.697 </v>
  <v>      6.898      1.434 </v>
  <v>      6.898      1.648 </v>
  <v>      6.901   1521.089 </v>
  <v>      6.901   1528.960 </v>
  <v>      6.901   1537.092 </v>
  <v>      6.903      0.230 </v>
  <v>      6.903      0.419 </v>
  <v>      6.904      0.000 </v>
  <v>      6.904      0.000 </v>
  <v>      6.904   1549.690 </v>
  <v>      6.904   1514.502 </v>
  <v>      6.904   1534.345 </v>
  <v>      6.905      0.000 </v>
  <v>      6.906      2.650 </v>
  <v>      6.906      3.078 </v>
  <v>      6.906      2.774 </v>
  <v>      6.917      0.008 </v>
  <v>      6.917      0.002 </v>
  <v>      6.917      0.001 </v>
  <v>      6.918      0.239 </v>
  <v>      6.918      0.093 </v>
  <v>      6.918      0.580 </v>
  <v>      6.919      0.064 </v>
  <v>      6.925      0.382 </v>
  <v>      6.925      0.230 </v>
  <v>      6.925      0.298 </v>
  <v>      6.927   1560.459 </v>
  <v>      6.927   1556.103 </v>
  <v>      6.927   1567.453 </v>
  <v>      6.927      7.701 </v>
  <v>      6.928      2.880 </v>
  <v>      6.928      0.573 </v>
  <v>      6.931      0.000 </v>
  <v>      6.931      0.000 </v>
  <v>      6.931      0.999 </v>
  <v>      6.932      3.170 </v>
  <v>      6.932      4.778 </v>
  <v>      6.932      4.197 </v>
  <v>      6.932      3.270 </v>
  <v>      6.932      0.133 </v>
  <v>      6.932      4.859 </v>
  <v>      6.933      0.101 </v>
  <v>      6.933      0.025 </v>
  <v>      6.933      0.017 </v>
  <v>      6.933    733.170 </v>
  <v>      6.933    727.034 </v>
  <v>      6.933    730.356 </v>
  <v>      6.934      1.310 </v>
  <v>      6.934      0.421 </v>
  <v>      6.936      0.004 </v>
  <v>      6.936      0.006 </v>
  <v>      6.936      0.012 </v>
  <v>      6.937      2.501 </v>
  <v>      6.937      0.856 </v>
  <v>      6.937      1.869 </v>
  <v>      6.937      0.029 </v>
  <v>      6.937      0.009 </v>
  <v>      6.937      0.057 </v>
  <v>      6.939      0.001 </v>
  <v>      6.939      0.011 </v>
  <v>      6.939      0.023 </v>
  <v>      6.939    220.156 </v>
  <v>      6.939    220.758 </v>
  <v>      6.939    220.898 </v>
  <v>      6.940      0.000 </v>
  <v>      6.940      0.005 </v>
  <v>      6.940      0.000 </v>
  <v>      6.940      0.001 </v>
  <v>      6.940      0.000 </v>
  <v>      6.942      0.336 </v>
  <v>      6.942      0.400 </v>
  <v>      6.942      0.357 </v>
  <v>      6.942    148.839 </v>
  <v>      6.942    149.357 </v>
  <v>      6.942    150.884 </v>
  <v>      6.943      0.000 </v>
  <v>      6.943      0.000 </v>
  <v>      6.961      0.000 </v>
  <v>      6.961      0.000 </v>
  <v>      6.961      0.005 </v>
  <v>      6.961      0.067 </v>
  <v>      6.961      0.012 </v>
  <v>      6.962      0.017 </v>
  <v>      6.962      0.055 </v>
  <v>      6.962      0.063 </v>
  <v>      6.962      0.000 </v>
  <v>      6.962      0.000 </v>
  <v>      6.962      0.000 </v>
  <v>      6.962      0.001 </v>
  <v>      6.962    267.521 </v>
  <v>      6.962    267.848 </v>
  <v>      6.962    267.197 </v>
  <v>      6.963      0.000 </v>
  <v>      6.963      0.000 </v>
  <v>      6.963     20.332 </v>
  <v>      6.963     20.128 </v>
  <v>      6.963     19.815 </v>
  <v>      6.963      0.092 </v>
  <v>      6.963      0.113 </v>
  <v>      6.963      0.125 </v>
  <v>      6.964      0.000 </v>
  <v>      7.010    107.000 </v>
  <v>      7.010     85.658 </v>
  <v>      7.010    107.487 </v>
  <v>      7.021     11.109 </v>
  <v>      7.021     12.557 </v>
  <v>      7.021      4.282 </v>
  <v>      7.022      4.827 </v>
  <v>      7.022      5.208 </v>
  <v>      7.024      0.000 </v>
  <v>      7.024      0.000 </v>
  <v>      7.024      0.002 </v>
  <v>      7.024      0.002 </v>
  <v>      7.024      0.000 </v>
  <v>      7.024      0.020 </v>
  <v>      7.024      0.009 </v>
  <v>      7.024      0.040 </v>
  <v>      7.030      0.000 </v>
  <v>      7.031   3973.192 </v>
  <v>      7.031   3871.929 </v>
  <v>      7.031   3697.058 </v>
  <v>      7.034      0.128 </v>
  <v>      7.034      0.081 </v>
  <v>      7.034      0.047 </v>
  <v>      7.042      3.130 </v>
  <v>      7.049      0.000 </v>
  <v>      7.049      0.000 </v>
  <v>      7.050   4250.520 </v>
  <v>      7.050   4212.520 </v>
  <v>      7.050   4192.424 </v>
  <v>      7.051      7.114 </v>
  <v>      7.051      0.511 </v>
  <v>      7.051      1.479 </v>
  <v>      7.052      0.002 </v>
  <v>      7.052      0.002 </v>
  <v>      7.052      0.007 </v>
  <v>      7.053      0.000 </v>
  <v>      7.053      0.001 </v>
  <v>      7.053      0.003 </v>
  <v>      7.053      0.005 </v>
  <v>      7.059      0.051 </v>
  <v>      7.059      0.020 </v>
  <v>      7.059      0.003 </v>
  <v>      7.060      3.102 </v>
  <v>      7.060      1.276 </v>
  <v>      7.062   2606.644 </v>
  <v>      7.062   2578.294 </v>
  <v>      7.062   2680.640 </v>
  <v>      7.087      0.004 </v>
  <v>      7.127      0.000 </v>
  <v>      7.127      0.065 </v>
  <v>      7.127      0.036 </v>
  <v>      7.127      0.020 </v>
  <v>      7.128      0.000 </v>
  <v>      7.128      0.000 </v>
  <v>      7.128      0.000 </v>
  <v>      7.128      0.000 </v>
  <v>      7.128      0.000 </v>
  <v>      7.128   4004.683 </v>
  <v>      7.128   4017.432 </v>
  <v>      7.128   4019.039 </v>
  <v>      7.130      0.000 </v>
  <v>      7.130      0.000 </v>
  <v>      7.130     85.760 </v>
  <v>      7.130     82.963 </v>
  <v>      7.130     78.910 </v>
  <v>      7.131      0.026 </v>
  <v>      7.131      0.191 </v>
  <v>      7.131      0.074 </v>
  <v>      7.132      0.137 </v>
  <v>      7.132      0.107 </v>
  <v>      7.132      0.078 </v>
  <v>      7.135      0.000 </v>
  <v>      7.283      0.000 </v>
  <v>      7.290      0.007 </v>
  <v>      7.290      0.010 </v>
  <v>      7.290      0.003 </v>
  <v>      7.290      0.000 </v>
  <v>      7.290      0.000 </v>
  <v>      7.292   3413.828 </v>
  <v>      7.292   3417.285 </v>
  <v>      7.292   3389.535 </v>
  <v>      7.293      0.023 </v>
  <v>      7.293      0.009 </v>
  <v>      7.293      0.002 </v>
  <v>      7.345     18.523 </v>
  <v>      7.345     20.093 </v>
  <v>      7.345     20.312 </v>
  <v>      7.346      0.004 </v>
  <v>      7.346      0.005 </v>
  <v>      7.346      0.001 </v>
  <v>      7.347      0.000 </v>
  <v>      7.347      0.054 </v>
  <v>      7.347      0.011 </v>
  <v>      7.347      0.004 </v>
  <v>      7.348      0.000 </v>
  <v>      7.348      0.000 </v>
  <v>      7.432   1118.250 </v>
  <v>      7.432   1193.447 </v>
  <v>      7.432   1093.682 </v>
  <v>      7.436      0.000 </v>
  <v>      7.436      0.000 </v>
  <v>      7.437      0.078 </v>
  <v>      7.437      0.055 </v>
  <v>      7.437      0.030 </v>
  <v>      7.438      0.000 </v>
  <v>      7.439      5.463 </v>
  <v>      7.439      1.973 </v>
  <v>      7.440   3896.045 </v>
  <v>      7.440   3961.014 </v>
  <v>      7.440   3798.351 </v>
  <v>      7.441      6.242 </v>
  <v>      7.441     12.103 </v>
  <v>      7.441      3.159 </v>
  <v>      7.441      0.002 </v>
  <v>      7.441      0.000 </v>
  <v>      7.441      0.000 </v>
  <v>      7.445      0.000 </v>
  <v>      7.445      0.000 </v>
  <v>      7.445      0.000 </v>
  <v>      7.446      0.000 </v>
  <v>      7.446      0.001 </v>
  <v>      7.446      0.000 </v>
  <v>      7.447     25.896 </v>
  <v>      7.447     23.697 </v>
  <v>      7.447     26.322 </v>
  <v>      7.447      0.000 </v>
  <v>      7.448      0.384 </v>
  <v>      7.448      0.056 </v>
  <v>      7.449      0.004 </v>
  <v>      7.449      0.011 </v>
  <v>      7.449      0.032 </v>
  <v>      7.450      0.000 </v>
  <v>      7.450      0.000 </v>
  <v>      7.450      0.000 </v>
  <v>      7.450      0.000 </v>
  <v>      7.450      0.000 </v>
  <v>      7.452      1.537 </v>
  <v>      7.455      0.034 </v>
  <v>      7.455      0.030 </v>
  <v>      7.455      0.022 </v>
  <v>      7.456    358.341 </v>
  <v>      7.456    309.460 </v>
  <v>      7.456    324.453 </v>
  <v>      7.481      0.000 </v>
  <v>      7.481      0.000 </v>
  <v>      7.486      0.000 </v>
  <v>      7.491      0.665 </v>
  <v>      7.494   1351.560 </v>
  <v>      7.494   1363.232 </v>
  <v>      7.494   1342.044 </v>
  <v>      7.622      0.007 </v>
  <v>      7.622      0.013 </v>
  <v>      7.622      0.007 </v>
  <v>      7.625    126.069 </v>
  <v>      7.625     60.650 </v>
  <v>      7.625     62.183 </v>
  <v>      7.627      0.000 </v>
  <v>      7.633     22.405 </v>
  <v>      7.649      0.008 </v>
  <v>      7.649      0.001 </v>
  <v>      7.649      0.001 </v>
  <v>      7.653      0.000 </v>
  <v>      7.653      0.003 </v>
  <v>      7.653      0.000 </v>
  <v>      7.655      0.001 </v>
  <v>      7.655      0.001 </v>
  <v>      7.656      0.148 </v>
  <v>      7.656      0.100 </v>
  <v>      7.656      0.113 </v>
  <v>      7.656      0.000 </v>
  <v>      7.656      0.000 </v>
  <v>      7.657      0.000 </v>
  <v>      7.657      0.000 </v>
  <v>      7.657      0.008 </v>
  <v>      7.658      0.004 </v>
  <v>      7.658      0.006 </v>
  <v>      7.658      0.023 </v>
  <v>      7.659      0.000 </v>
  <v>      7.661   2348.527 </v>
  <v>      7.661   2347.985 </v>
  <v>      7.661   2355.452 </v>
  <v>      7.661      0.000 </v>
  <v>      7.710   2117.591 </v>
  <v>      7.710   2032.082 </v>
  <v>      7.710   2093.582 </v>
  <v>      7.711      0.003 </v>
  <v>      7.711      0.003 </v>
  <v>      7.711      0.036 </v>
  <v>      7.711      1.443 </v>
  <v>      7.711      2.046 </v>
  <v>      7.711      0.207 </v>
  <v>      7.713      0.000 </v>
  <v>      7.713      0.000 </v>
  <v>      7.713      0.420 </v>
  <v>      7.713      0.303 </v>
  <v>      7.713      0.363 </v>
  <v>      7.713      0.303 </v>
  <v>      7.713      1.453 </v>
  <v>      7.714      0.010 </v>
  <v>      7.714      0.004 </v>
  <v>      7.714      0.005 </v>
  <v>      7.714    787.529 </v>
  <v>      7.714    843.969 </v>
  <v>      7.714    860.098 </v>
  <v>      7.718      0.000 </v>
  <v>      7.731      0.311 </v>
  <v>      7.807      0.004 </v>
  <v>      7.807      0.002 </v>
  <v>      7.807      0.012 </v>
  <v>      7.813      0.042 </v>
  <v>      7.813      0.043 </v>
  <v>      7.813      0.002 </v>
  <v>      7.813      0.019 </v>
  <v>      7.813      0.004 </v>
  <v>      7.814      4.202 </v>
  <v>      7.814      4.558 </v>
  <v>      7.814      4.327 </v>
  <v>      7.821      0.085 </v>
  <v>      7.821      0.002 </v>
  <v>      7.821      0.017 </v>
  <v>      7.821      0.009 </v>
  <v>      7.822      0.003 </v>
  <v>      7.822      0.047 </v>
  <v>      7.822      0.062 </v>
  <v>      7.823   2280.551 </v>
  <v>      7.823   2258.326 </v>
  <v>      7.823   2259.861 </v>
  <v>      7.825      4.296 </v>
  <v>      7.825      4.260 </v>
  <v>      7.825      4.272 </v>
  <v>      7.853      0.012 </v>
  <v>      7.853      0.005 </v>
  <v>      7.853      0.003 </v>
  <v>      7.861      0.029 </v>
  <v>      7.861      0.010 </v>
  <v>      7.861      0.003 </v>
  <v>      7.864      1.341 </v>
  <v>      7.864      1.411 </v>
  <v>      7.864      1.259 </v>
  <v>      7.864      0.000 </v>
  <v>      7.869      0.029 </v>
  <v>      7.869      0.014 </v>
  <v>      7.873      0.003 </v>
  <v>      7.873      0.004 </v>
  <v>      7.873      0.005 </v>
  <v>      7.874      0.014 </v>
  <v>      7.874      0.019 </v>
  <v>      7.874      0.018 </v>
  <v>      7.874      0.000 </v>
  <v>      7.874      0.000 </v>
  <v>      7.881   2313.372 </v>
  <v>      7.881   2306.205 </v>
  <v>      7.881   2298.449 </v>
  <v>      7.881      0.000 </v>
  <v>      7.886      0.011 </v>
  <v>      7.886      0.012 </v>
  <v>      7.888      0.000 </v>
  <v>      7.888      0.001 </v>
  <v>      7.888      0.005 </v>
  <v>      7.888      0.004 </v>
  <v>      7.888      0.019 </v>
  <v>      7.888      0.004 </v>
  <v>      7.889      4.260 </v>
  <v>      7.889      4.254 </v>
  <v>      7.889      4.285 </v>
  <v>      7.889      0.000 </v>
  <v>      7.892    621.798 </v>
  <v>      7.892    617.124 </v>
  <v>      7.892    624.976 </v>
  <v>      7.893      0.001 </v>
  <v>      7.893      0.000 </v>
  <v>      7.893      0.003 </v>
  <v>      7.897      0.000 </v>
  <v>      7.897      0.000 </v>
  <v>      7.897      0.000 </v>
  <v>      7.897      0.000 </v>
  <v>      7.898      0.001 </v>
  <v>      7.898      0.001 </v>
  <v>      7.898      0.000 </v>
  <v>      7.898      0.000 </v>
  <v>      7.898      0.000 </v>
  <v>      7.898      0.001 </v>
  <v>      7.899      1.253 </v>
  <v>      7.899      1.205 </v>
  <v>      7.899      1.210 </v>
[...]
     <r>    15.6356    -0.0714    -0.0756    -0.0801     0.0033     0.0000     0.0015 </r>
     <r>    15.6557    -0.0566    -0.0607    -0.0650     0.0032     0.0001     0.0015 </r>
     <r>    15.6757    -0.0459    -0.0496    -0.0536     0.0031     0.0002     0.0015 </r>
     <r>    15.6957    -0.0370    -0.0402    -0.0437     0.0030     0.0002     0.0015 </r>
     <r>    15.7157    -0.0291    -0.0318    -0.0347     0.0029     0.0003     0.0014 </r>
     <r>    15.7357    -0.0234    -0.0256    -0.0280     0.0028     0.0003     0.0014 </r>
     <r>    15.7558    -0.0229    -0.0246    -0.0267     0.0027     0.0004     0.0014 </r>
     <r>    15.7758    -0.0298    -0.0311    -0.0329     0.0025     0.0005     0.0014 </r>
     <r>    15.7958    -0.0428    -0.0439    -0.0453     0.0024     0.0006     0.0014 </r>
     <r>    15.8158    -0.0572    -0.0580    -0.0593     0.0022     0.0008     0.0014 </r>
     <r>    15.8358    -0.0692    -0.0699    -0.0710     0.0022     0.0008     0.0013 </r>
     <r>    15.8559    -0.0801    -0.0807    -0.0817     0.0022     0.0008     0.0013 </r>
     <r>    15.8759    -0.0953    -0.0956    -0.0965     0.0023     0.0006     0.0013 </r>
     <r>    15.8959    -0.1192    -0.1193    -0.1197     0.0026     0.0003     0.0013 </r>
     <r>    15.9159    -0.1505    -0.1500    -0.1500     0.0030    -0.0001     0.0013 </r>
     <r>    15.9359    -0.1802    -0.1792    -0.1787     0.0033    -0.0005     0.0013 </r>
     <r>    15.9560    -0.1982    -0.1968    -0.1958     0.0036    -0.0008     0.0013 </r>
     <r>    15.9760    -0.1999    -0.1982    -0.1970     0.0038    -0.0010     0.0013 </r>
     <r>    15.9960    -0.1874    -0.1856    -0.1843     0.0038    -0.0011     0.0012 </r>
     <r>    16.0160    -0.1658    -0.1640    -0.1628     0.0038    -0.0011     0.0012 </r>
     <r>    16.0360    -0.1403    -0.1386    -0.1375     0.0038    -0.0011     0.0012 </r>
     <r>    16.0561    -0.1150    -0.1134    -0.1124     0.0037    -0.0011     0.0012 </r>
     <r>    16.0761    -0.0927    -0.0912    -0.0903     0.0037    -0.0010     0.0012 </r>
     <r>    16.0961    -0.0753    -0.0738    -0.0730     0.0036    -0.0010     0.0012 </r>
     <r>    16.1161    -0.0632    -0.0617    -0.0608     0.0036    -0.0010     0.0012 </r>
     <r>    16.1361    -0.0558    -0.0543    -0.0534     0.0035    -0.0010     0.0012 </r>
     <r>    16.1562    -0.0515    -0.0500    -0.0490     0.0035    -0.0010     0.0012 </r>
     <r>    16.1762    -0.0473    -0.0457    -0.0447     0.0036    -0.0010     0.0012 </r>
     <r>    16.1962    -0.0394    -0.0377    -0.0366     0.0036    -0.0010     0.0012 </r>
     <r>    16.2162    -0.0258    -0.0241    -0.0230     0.0036    -0.0010     0.0012 </r>
     <r>    16.2362    -0.0081    -0.0064    -0.0053     0.0036    -0.0011     0.0012 </r>
     <r>    16.2563     0.0094     0.0111     0.0122     0.0037    -0.0011     0.0012 </r>
     <r>    16.2763     0.0218     0.0235     0.0246     0.0038    -0.0012     0.0011 </r>
     <r>    16.2963     0.0246     0.0264     0.0276     0.0039    -0.0014     0.0011 </r>
     <r>    16.3163     0.0161     0.0180     0.0193     0.0041    -0.0016     0.0011 </r>
     <r>    16.3363    -0.0019     0.0002     0.0017     0.0044    -0.0019     0.0011 </r>
     <r>    16.3564    -0.0240    -0.0216    -0.0199     0.0046    -0.0022     0.0011 </r>
     <r>    16.3764    -0.0440    -0.0414    -0.0394     0.0048    -0.0023     0.0011 </r>
     <r>    16.3964    -0.0587    -0.0559    -0.0538     0.0048    -0.0023     0.0011 </r>
     <r>    16.4164    -0.0698    -0.0669    -0.0646     0.0046    -0.0021     0.0011 </r>
     <r>    16.4364    -0.0805    -0.0776    -0.0755     0.0042    -0.0017     0.0011 </r>
     <r>    16.4565    -0.0926    -0.0900    -0.0881     0.0037    -0.0012     0.0012 </r>
     <r>    16.4765    -0.1052    -0.1029    -0.1014     0.0031    -0.0006     0.0012 </r>
     <r>    16.4965    -0.1171    -0.1152    -0.1141     0.0026    -0.0001     0.0012 </r>
     <r>    16.5165    -0.1282    -0.1267    -0.1258     0.0022     0.0003     0.0012 </r>
     <r>    16.5365    -0.1381    -0.1367    -0.1360     0.0018     0.0006     0.0012 </r>
     <r>    16.5566    -0.1449    -0.1437    -0.1431     0.0016     0.0008     0.0011 </r>
     <r>    16.5766    -0.1466    -0.1455    -0.1450     0.0014     0.0009     0.0011 </r>
     <r>    16.5966    -0.1418    -0.1407    -0.1403     0.0012     0.0009     0.0010 </r>
     <r>    16.6166    -0.1304    -0.1293    -0.1289     0.0011     0.0009     0.0010 </r>
     <r>    16.6366    -0.1139    -0.1128    -0.1123     0.0011     0.0008     0.0009 </r>
     <r>    16.6567    -0.0945    -0.0933    -0.0928     0.0011     0.0008     0.0009 </r>
     <r>    16.6767    -0.0742    -0.0730    -0.0724     0.0011     0.0007     0.0009 </r>
     <r>    16.6967    -0.0544    -0.0531    -0.0525     0.0012     0.0007     0.0009 </r>
     <r>    16.7167    -0.0352    -0.0338    -0.0330     0.0012     0.0006     0.0009 </r>
     <r>    16.7367    -0.0157    -0.0141    -0.0133     0.0012     0.0006     0.0009 </r>
     <r>    16.7568     0.0047     0.0064     0.0074     0.0012     0.0006     0.0009 </r>
     <r>    16.7768     0.0248     0.0266     0.0277     0.0013     0.0006     0.0009 </r>
     <r>    16.7968     0.0421     0.0440     0.0453     0.0013     0.0006     0.0009 </r>
     <r>    16.8168     0.0537     0.0558     0.0571     0.0013     0.0006     0.0009 </r>
     <r>    16.8368     0.0580     0.0602     0.0617     0.0013     0.0006     0.0009 </r>
     <r>    16.8569     0.0560     0.0583     0.0599     0.0012     0.0005     0.0009 </r>
     <r>    16.8769     0.0501     0.0524     0.0541     0.0012     0.0005     0.0009 </r>
     <r>    16.8969     0.0406     0.0429     0.0444     0.0012     0.0005     0.0009 </r>
     <r>    16.9169     0.0245     0.0265     0.0279     0.0012     0.0005     0.0009 </r>
     <r>    16.9369    -0.0022    -0.0006     0.0003     0.0012     0.0005     0.0009 </r>
     <r>    16.9570    -0.0393    -0.0384    -0.0381     0.0011     0.0006     0.0008 </r>
     <r>    16.9770    -0.0795    -0.0792    -0.0797     0.0010     0.0006     0.0008 </r>
     <r>    16.9970    -0.1112    -0.1115    -0.1126     0.0009     0.0007     0.0008 </r>
     <r>    17.0170    -0.1267    -0.1275    -0.1290     0.0008     0.0007     0.0008 </r>
     <r>    17.0370    -0.1257    -0.1267    -0.1284     0.0008     0.0008     0.0008 </r>
     <r>    17.0571    -0.1120    -0.1131    -0.1149     0.0007     0.0008     0.0008 </r>
     <r>    17.0771    -0.0904    -0.0914    -0.0932     0.0007     0.0009     0.0008 </r>
     <r>    17.0971    -0.0644    -0.0654    -0.0671     0.0006     0.0009     0.0008 </r>
     <r>    17.1171    -0.0365    -0.0373    -0.0389     0.0006     0.0009     0.0008 </r>
     <r>    17.1371    -0.0082    -0.0088    -0.0101     0.0005     0.0010     0.0008 </r>
     <r>    17.1572     0.0199     0.0195     0.0183     0.0005     0.0010     0.0008 </r>
     <r>    17.1772     0.0468     0.0466     0.0456     0.0004     0.0011     0.0008 </r>
     <r>    17.1972     0.0717     0.0717     0.0708     0.0004     0.0011     0.0008 </r>
     <r>    17.2172     0.0932     0.0933     0.0926     0.0003     0.0012     0.0007 </r>
     <r>    17.2372     0.1094     0.1097     0.1091     0.0002     0.0012     0.0007 </r>
     <r>    17.2573     0.1190     0.1194     0.1189     0.0002     0.0012     0.0007 </r>
     <r>    17.2773     0.1209     0.1213     0.1209     0.0001     0.0013     0.0007 </r>
     <r>    17.2973     0.1137     0.1142     0.1140     0.0000     0.0014     0.0007 </r>
     <r>    17.3173     0.0953     0.0959     0.0957    -0.0001     0.0014     0.0007 </r>
     <r>    17.3373     0.0642     0.0649     0.0648    -0.0002     0.0015     0.0007 </r>
     <r>    17.3574     0.0243     0.0252     0.0252    -0.0003     0.0016     0.0007 </r>
     <r>    17.3774    -0.0140    -0.0130    -0.0128    -0.0004     0.0017     0.0007 </r>
     <r>    17.3974    -0.0401    -0.0388    -0.0385    -0.0005     0.0018     0.0007 </r>
     <r>    17.4174    -0.0492    -0.0478    -0.0473    -0.0006     0.0019     0.0007 </r>
     <r>    17.4374    -0.0434    -0.0419    -0.0412    -0.0008     0.0020     0.0007 </r>
     <r>    17.4575    -0.0271    -0.0254    -0.0245    -0.0009     0.0021     0.0007 </r>
     <r>    17.4775    -0.0045    -0.0025    -0.0015    -0.0011     0.0023     0.0007 </r>
     <r>    17.4975     0.0217     0.0239     0.0251    -0.0012     0.0024     0.0007 </r>
     <r>    17.5175     0.0497     0.0520     0.0535    -0.0013     0.0026     0.0007 </r>
     <r>    17.5375     0.0785     0.0810     0.0826    -0.0015     0.0028     0.0007 </r>
     <r>    17.5576     0.1074     0.1100     0.1119    -0.0016     0.0030     0.0007 </r>
     <r>    17.5776     0.1360     0.1388     0.1407    -0.0017     0.0031     0.0007 </r>
     <r>    17.5976     0.1640     0.1667     0.1686    -0.0017     0.0032     0.0006 </r>
     <r>    17.6176     0.1908     0.1932     0.1947    -0.0017     0.0031     0.0006 </r>
     <r>    17.6376     0.2157     0.2176     0.2183    -0.0015     0.0029     0.0004 </r>
     <r>    17.6577     0.2382     0.2392     0.2390    -0.0011     0.0024     0.0003 </r>
     <r>    17.6777     0.2579     0.2579     0.2565    -0.0006     0.0017     0.0002 </r>
     <r>    17.6977     0.2739     0.2729     0.2705     0.0000     0.0010     0.0003 </r>
     <r>    17.7177     0.2845     0.2826     0.2796     0.0006     0.0004     0.0004 </r>
     <r>    17.7377     0.2866     0.2842     0.2807     0.0011    -0.0000     0.0005 </r>
     <r>    17.7578     0.2773     0.2745     0.2708     0.0017    -0.0005     0.0006 </r>
     <r>    17.7778     0.2562     0.2531     0.2493     0.0022    -0.0010     0.0007 </r>
     <r>    17.7978     0.2276     0.2242     0.2202     0.0028    -0.0016     0.0007 </r>
     <r>    17.8178     0.1996     0.1961     0.1920     0.0033    -0.0021     0.0007 </r>
     <r>    17.8378     0.1803     0.1766     0.1724     0.0038    -0.0026     0.0007 </r>
     <r>    17.8579     0.1716     0.1678     0.1634     0.0042    -0.0029     0.0007 </r>
     <r>    17.8779     0.1689     0.1650     0.1604     0.0045    -0.0032     0.0007 </r>
     <r>    17.8979     0.1639     0.1598     0.1550     0.0047    -0.0035     0.0007 </r>
     <r>    17.9179     0.1474     0.1431     0.1381     0.0050    -0.0037     0.0007 </r>
     <r>    17.9379     0.1113     0.1068     0.1018     0.0051    -0.0039     0.0007 </r>
     <r>    17.9580     0.0509     0.0466     0.0416     0.0050    -0.0038     0.0007 </r>
     <r>    17.9780    -0.0288    -0.0329    -0.0376     0.0048    -0.0036     0.0007 </r>
     <r>    17.9980    -0.1110    -0.1147    -0.1191     0.0044    -0.0032     0.0006 </r>
     <r>    18.0180    -0.1752    -0.1786    -0.1826     0.0041    -0.0029     0.0006 </r>
     <r>    18.0380    -0.2105    -0.2137    -0.2174     0.0037    -0.0026     0.0006 </r>
     <r>    18.0581    -0.2189    -0.2217    -0.2253     0.0035    -0.0023     0.0006 </r>
     <r>    18.0781    -0.2080    -0.2107    -0.2141     0.0033    -0.0021     0.0006 </r>
     <r>    18.0981    -0.1864    -0.1890    -0.1922     0.0031    -0.0020     0.0006 </r>
     <r>    18.1181    -0.1606    -0.1631    -0.1662     0.0029    -0.0019     0.0006 </r>
     <r>    18.1381    -0.1360    -0.1384    -0.1414     0.0028    -0.0018     0.0006 </r>
     <r>    18.1582    -0.1172    -0.1195    -0.1225     0.0027    -0.0017     0.0006 </r>
     <r>    18.1782    -0.1083    -0.1106    -0.1135     0.0027    -0.0016     0.0006 </r>
     <r>    18.1982    -0.1118    -0.1140    -0.1169     0.0026    -0.0016     0.0006 </r>
     <r>    18.2182    -0.1255    -0.1276    -0.1304     0.0026    -0.0016     0.0006 </r>
     <r>    18.2382    -0.1417    -0.1438    -0.1465     0.0026    -0.0016     0.0006 </r>
     <r>    18.2583    -0.1518    -0.1539    -0.1566     0.0026    -0.0016     0.0005 </r>
     <r>    18.2783    -0.1514    -0.1534    -0.1560     0.0025    -0.0016     0.0005 </r>
     <r>    18.2983    -0.1410    -0.1429    -0.1455     0.0025    -0.0015     0.0005 </r>
     <r>    18.3183    -0.1235    -0.1254    -0.1280     0.0024    -0.0015     0.0005 </r>
     <r>    18.3383    -0.1020    -0.1038    -0.1063     0.0024    -0.0014     0.0005 </r>
     <r>    18.3584    -0.0784    -0.0802    -0.0827     0.0023    -0.0014     0.0005 </r>
     <r>    18.3784    -0.0543    -0.0561    -0.0585     0.0023    -0.0013     0.0005 </r>
     <r>    18.3984    -0.0306    -0.0323    -0.0347     0.0023    -0.0013     0.0005 </r>
     <r>    18.4184    -0.0077    -0.0094    -0.0118     0.0023    -0.0012     0.0006 </r>
     <r>    18.4384     0.0139     0.0123     0.0100     0.0023    -0.0012     0.0006 </r>
     <r>    18.4585     0.0341     0.0325     0.0303     0.0023    -0.0012     0.0006 </r>
     <r>    18.4785     0.0522     0.0506     0.0484     0.0023    -0.0011     0.0006 </r>
     <r>    18.4985     0.0662     0.0647     0.0625     0.0022    -0.0011     0.0006 </r>
     <r>    18.5185     0.0734     0.0719     0.0697     0.0022    -0.0011     0.0006 </r>
     <r>    18.5385     0.0702     0.0687     0.0665     0.0022    -0.0011     0.0006 </r>
     <r>    18.5586     0.0540     0.0525     0.0503     0.0022    -0.0011     0.0006 </r>
     <r>    18.5786     0.0259     0.0244     0.0222     0.0023    -0.0011     0.0006 </r>
     <r>    18.5986    -0.0071    -0.0087    -0.0108     0.0023    -0.0011     0.0006 </r>
     <r>    18.6186    -0.0351    -0.0367    -0.0388     0.0023    -0.0012     0.0006 </r>
     <r>    18.6386    -0.0510    -0.0525    -0.0546     0.0024    -0.0012     0.0006 </r>
     <r>    18.6587    -0.0535    -0.0551    -0.0572     0.0024    -0.0012     0.0006 </r>
     <r>    18.6787    -0.0457    -0.0473    -0.0494     0.0023    -0.0012     0.0006 </r>
     <r>    18.6987    -0.0312    -0.0327    -0.0348     0.0023    -0.0011     0.0006 </r>
     <r>    18.7187    -0.0131    -0.0146    -0.0167     0.0023    -0.0011     0.0006 </r>
     <r>    18.7387     0.0066     0.0051     0.0030     0.0022    -0.0011     0.0006 </r>
     <r>    18.7588     0.0261     0.0247     0.0225     0.0021    -0.0010     0.0006 </r>
     <r>    18.7788     0.0442     0.0427     0.0406     0.0020    -0.0010     0.0006 </r>
     <r>    18.7988     0.0589     0.0575     0.0555     0.0020    -0.0010     0.0006 </r>
     <r>    18.8188     0.0683     0.0670     0.0651     0.0019    -0.0010     0.0005 </r>
     <r>    18.8388     0.0702     0.0690     0.0671     0.0019    -0.0011     0.0005 </r>
     <r>    18.8589     0.0632     0.0622     0.0605     0.0019    -0.0011     0.0005 </r>
     <r>    18.8789     0.0487     0.0479     0.0464     0.0019    -0.0012     0.0005 </r>
     <r>    18.8989     0.0311     0.0304     0.0291     0.0020    -0.0013     0.0005 </r>
     <r>    18.9189     0.0166     0.0161     0.0148     0.0020    -0.0013     0.0005 </r>
     <r>    18.9389     0.0098     0.0094     0.0082     0.0020    -0.0014     0.0005 </r>
     <r>    18.9590     0.0115     0.0111     0.0100     0.0020    -0.0014     0.0004 </r>
     <r>    18.9790     0.0192     0.0190     0.0179     0.0020    -0.0014     0.0004 </r>
     <r>    18.9990     0.0299     0.0297     0.0287     0.0019    -0.0014     0.0004 </r>
     <r>    19.0190     0.0403     0.0401     0.0391     0.0019    -0.0014     0.0004 </r>
     <r>    19.0390     0.0479     0.0476     0.0467     0.0018    -0.0013     0.0004 </r>
     <r>    19.0591     0.0511     0.0509     0.0500     0.0018    -0.0013     0.0004 </r>
     <r>    19.0791     0.0505     0.0503     0.0494     0.0018    -0.0013     0.0004 </r>
     <r>    19.0991     0.0479     0.0477     0.0469     0.0018    -0.0012     0.0004 </r>
     <r>    19.1191     0.0451     0.0450     0.0442     0.0018    -0.0012     0.0004 </r>
     <r>    19.1391     0.0428     0.0426     0.0420     0.0018    -0.0012     0.0004 </r>
     <r>    19.1592     0.0408     0.0407     0.0401     0.0019    -0.0012     0.0004 </r>
     <r>    19.1792     0.0396     0.0395     0.0391     0.0019    -0.0012     0.0005 </r>
     <r>    19.1992     0.0399     0.0398     0.0396     0.0021    -0.0012     0.0005 </r>
     <r>    19.2192     0.0421     0.0420     0.0420     0.0022    -0.0012     0.0006 </r>
     <r>    19.2392     0.0453     0.0453     0.0454     0.0024    -0.0011     0.0007 </r>
     <r>    19.2593     0.0485     0.0485     0.0489     0.0027    -0.0011     0.0008 </r>
     <r>    19.2793     0.0512     0.0512     0.0517     0.0030    -0.0010     0.0009 </r>
     <r>    19.2993     0.0534     0.0535     0.0541     0.0033    -0.0010     0.0010 </r>
     <r>    19.3193     0.0553     0.0554     0.0560     0.0035    -0.0010     0.0010 </r>
     <r>    19.3393     0.0560     0.0561     0.0566     0.0037    -0.0010     0.0011 </r>
     <r>    19.3594     0.0550     0.0550     0.0553     0.0039    -0.0011     0.0011 </r>
     <r>    19.3794     0.0524     0.0523     0.0522     0.0039    -0.0012     0.0011 </r>
     <r>    19.3994     0.0491     0.0488     0.0483     0.0039    -0.0013     0.0010 </r>
     <r>    19.4194     0.0455     0.0449     0.0439     0.0037    -0.0013     0.0010 </r>
     <r>    19.4394     0.0409     0.0398     0.0382     0.0035    -0.0012     0.0010 </r>
     <r>    19.4595     0.0336     0.0320     0.0298     0.0032    -0.0011     0.0009 </r>
     <r>    19.4795     0.0229     0.0208     0.0180     0.0028    -0.0009     0.0009 </r>
     <r>    19.4995     0.0099     0.0075     0.0043     0.0024    -0.0007     0.0008 </r>
     <r>    19.5195    -0.0026    -0.0052    -0.0086     0.0021    -0.0005     0.0008 </r>
     <r>    19.5395    -0.0119    -0.0146    -0.0182     0.0018    -0.0003     0.0007 </r>
     <r>    19.5596    -0.0173    -0.0199    -0.0235     0.0016    -0.0002     0.0007 </r>
     <r>    19.5796    -0.0195    -0.0219    -0.0255     0.0015    -0.0002     0.0007 </r>
     <r>    19.5996    -0.0189    -0.0213    -0.0247     0.0015    -0.0002     0.0006 </r>
     <r>    19.6196    -0.0159    -0.0182    -0.0215     0.0014    -0.0002     0.0006 </r>
     <r>    19.6396    -0.0105    -0.0127    -0.0159     0.0014    -0.0002     0.0006 </r>
     <r>    19.6597    -0.0034    -0.0055    -0.0087     0.0014    -0.0002     0.0006 </r>
     <r>    19.6797     0.0046     0.0024    -0.0007     0.0014    -0.0002     0.0006 </r>
     <r>    19.6997     0.0127     0.0106     0.0075     0.0014    -0.0002     0.0006 </r>
     <r>    19.7197     0.0209     0.0187     0.0156     0.0014    -0.0002     0.0006 </r>
     <r>    19.7397     0.0289     0.0268     0.0236     0.0013    -0.0002     0.0006 </r>
     <r>    19.7598     0.0370     0.0348     0.0317     0.0013    -0.0002     0.0006 </r>
     <r>    19.7798     0.0449     0.0428     0.0397     0.0013    -0.0002     0.0006 </r>
     <r>    19.7998     0.0527     0.0506     0.0476     0.0013    -0.0002     0.0006 </r>
     <r>    19.8198     0.0603     0.0583     0.0553     0.0013    -0.0002     0.0006 </r>
     <r>    19.8398     0.0677     0.0656     0.0627     0.0013    -0.0002     0.0006 </r>
     <r>    19.8599     0.0747     0.0727     0.0698     0.0013    -0.0002     0.0006 </r>
     <r>    19.8799     0.0814     0.0795     0.0767     0.0013    -0.0002     0.0006 </r>
     <r>    19.8999     0.0879     0.0860     0.0832     0.0013    -0.0002     0.0006 </r>
     <r>    19.9199     0.0941     0.0922     0.0895     0.0013    -0.0002     0.0005 </r>
     <r>    19.9399     0.1000     0.0982     0.0956     0.0013    -0.0002     0.0005 </r>
     <r>    19.9600     0.1058     0.1040     0.1014     0.0013    -0.0002     0.0005 </r>
     <r>    19.9800     0.1113     0.1095     0.1069     0.0013    -0.0002     0.0005 </r>
     <r>    20.0000     0.1166     0.1149     0.1123     0.0013    -0.0002     0.0005 </r>
    </set>
   </array>
  </real>
 </dielectricfunction>
</modeling>
