ITEM: TIMESTEP
100
ITEM: NUMBER OF ATOMS
21
ITEM: BOX BOUNDS pp pp pp
3.5000000000000000e+01 4.8000000000000000e+01
3.5000000000000000e+01 4.8000000000000000e+01
3.5000000000000000e+01 4.8000000000000000e+01
ITEM: ATOMS id type xs ys zs
1 1 0.322954 0.493361 0.303898
6 4 0.407264 0.429955 0.253501
7 4 0.243483 0.438366 0.474227
9 4 0.356073 0.313191 0.226751
10 3 0.161109 0.422127 0.424446
14 3 0.419679 0.242749 0.206149
15 3 0.261262 0.311754 0.204619
16 2 0.241234 0.476488 0.273948
4 4 0.513583 0.431242 0.419227
5 1 0.507559 0.413724 0.305453
8 4 0.516003 0.317822 0.477655
13 3 0.56167 0.245529 0.430569
20 2 0.547849 0.48797 0.280389
21 2 0.548489 0.338285 0.284454
2 4 0.333338 0.511349 0.415516
3 1 0.430182 0.497203 0.470997
17 2 0.358815 0.568349 0.278835
18 2 0.469753 0.574424 0.45565
11 3 0.253873 0.424658 0.57026
12 3 0.497887 0.317058 0.573767
19 2 0.42369 0.47347 0.555425
