ITEM: TIMESTEP
0
ITEM: NUMBER OF ATOMS
123
ITEM: BOX BOUNDS pp pp pp
0.0000000000000000e+00 2.5000000000000000e+01
0.0000000000000000e+00 2.5000000000000000e+01
0.0000000000000000e+00 2.5000000000000000e+01
ITEM: ATOMS id type xs ys zs
1 1 0 0 0
9 2 0.0688732 0.00850804 0.145965
11 2 0.087858 0.109787 0.079684
21 1 0.20458 0 0.058598
29 2 0.205043 0.150033 0.0569824
39 2 0.065206 0.205918 0.158768
41 2 0.0359407 0.0497972 0.26094
51 1 0.109012 0.248794 0.00582912
53 1 0.161236 0.107158 0.209921
74 2 0.0316716 0.174588 0.275845
83 2 0.18239 0.246164 0.136066
87 2 0.273453 0.00850804 0.204563
89 2 0.292438 0.109787 0.138282
95 2 0.327262 0.108785 0.0167035
102 2 0.147567 0.247166 0.257645
106 2 0.120356 0.102009 0.352642
121 1 0.0656688 0.355951 0.157152
8 2 0.864293 0.00850804 0.0873672
10 2 0.883278 0.109787 0.021086
18 1 0.956656 0.107158 0.151323
27 2 0.977811 0.246164 0.0774684
38 2 0.860626 0.205918 0.10017
40 2 0.831361 0.0497972 0.202342
52 1 0.752076 0.107158 0.0927252
60 2 0.942987 0.247166 0.199047
62 2 0.915777 0.102009 0.294044
72 2 0.827092 0.174588 0.217247
82 2 0.773231 0.246164 0.0188706
86 2 0.659714 0.00850804 0.0287693
96 2 0.996796 0.347443 0.0111873
100 2 0.738407 0.247166 0.140449
104 2 0.711197 0.102009 0.235446
117 1 0.861089 0.355951 0.0985544
15 2 0.081898 0.891215 0.100492
31 2 0.204117 0.849967 0.0602136
35 2 0.166314 0.943427 0.192194
46 1 0.0955676 0.751206 0.0527688
50 1 0.0410184 0.886067 0.243213
58 2 0.170583 0.818636 0.17729
71 2 0.0546876 0.746058 0.19549
77 2 0.133381 0.984716 0.30717
91 2 0.321302 0.890213 0.037512
93 2 0.286478 0.891215 0.15909
109 2 0.137048 0.787306 0.294366
113 2 0.174852 0.693846 0.162386
3 2 0.999537 0.849967 0.0016158
5 2 0.961734 0.943427 0.133596
14 2 0.877318 0.891215 0.0418944
22 2 0.966003 0.818636 0.118692
24 2 0.928802 0.984716 0.248572
34 2 0.757154 0.943427 0.0749984
48 1 0.836438 0.886067 0.184615
56 2 0.761423 0.818636 0.060094
64 2 0.932469 0.787306 0.235768
66 2 0.970272 0.693846 0.103788
70 2 0.850108 0.746058 0.136892
76 2 0.724222 0.984716 0.189974
99 2 0.909816 0.883438 0.314853
108 2 0.727889 0.787306 0.17717
112 2 0.765692 0.693846 0.04519
116 1 0.793095 0.993224 0.335939
120 1 0.997675 0.993224 0.394537
2 2 0.0004628 0.150033 0.998384
4 2 0.0382661 0.0565732 0.866404
17 2 0.122682 0.108785 0.958106
23 2 0.0339971 0.181364 0.881308
25 2 0.0711984 0.0152838 0.751428
33 2 0.242846 0.0565732 0.925002
47 1 0.163562 0.113933 0.815385
59 2 0.238577 0.181364 0.939906
65 2 0.0675312 0.212694 0.764232
67 2 0.0297281 0.306154 0.896212
69 2 0.149892 0.253942 0.863108
79 2 0.275778 0.0152838 0.810026
98 2 0.0901836 0.116562 0.685147
111 2 0.272111 0.212694 0.82283
115 2 0.234308 0.306154 0.95481
119 1 0.00232544 0.00677572 0.605463
123 1 0.206905 0.00677572 0.664061
16 2 0.918102 0.108785 0.899508
20 1 0.79542 0 0.941402
28 2 0.795883 0.150033 0.939786
32 2 0.833686 0.0565732 0.807806
45 1 0.958982 0.113933 0.756787
49 1 0.904432 0.248794 0.947231
57 2 0.829417 0.181364 0.82271
68 2 0.945312 0.253942 0.80451
78 2 0.866619 0.0152838 0.69283
88 2 0.678698 0.109787 0.962488
94 2 0.713522 0.108785 0.84091
110 2 0.862952 0.212694 0.705634
114 2 0.825148 0.306154 0.837614
7 2 0.135707 0.991492 0.912633
13 2 0.116722 0.890213 0.978914
19 1 0.0433436 0.892842 0.848677
26 2 0.0221894 0.753836 0.922532
37 2 0.139374 0.794082 0.89983
43 2 0.168639 0.950203 0.797658
55 1 0.247924 0.892842 0.907275
61 2 0.0842232 0.897991 0.705956
63 2 0.0570132 0.752834 0.800953
75 2 0.172908 0.825412 0.782753
81 2 0.226769 0.753836 0.981129
85 2 0.340286 0.991492 0.971231
97 2 0.0032044 0.652557 0.988813
103 2 0.288803 0.897991 0.764554
107 2 0.261593 0.752834 0.859551
122 1 0.138911 0.644049 0.901446
6 2 0.931127 0.991492 0.854035
12 2 0.912142 0.890213 0.920316
30 2 0.794957 0.849967 0.943018
36 2 0.934794 0.794082 0.841232
42 2 0.964059 0.950203 0.73906
44 1 0.890988 0.751206 0.994171
54 1 0.838764 0.892842 0.790079
73 2 0.968328 0.825412 0.724155
80 2 0.81761 0.753836 0.863934
84 2 0.726547 0.991492 0.795437
90 2 0.707562 0.890213 0.861718
92 2 0.672738 0.891215 0.983296
101 2 0.879644 0.897991 0.647358
105 2 0.852433 0.752834 0.742355
118 1 0.934331 0.644049 0.842848
