ITEM: TIMESTEP
25
ITEM: NUMBER OF ATOMS
21
ITEM: BOX BOUNDS pp pp pp
3.5000000000000000e+01 4.8000000000000000e+01
3.5000000000000000e+01 4.8000000000000000e+01
3.5000000000000000e+01 4.8000000000000000e+01
ITEM: ATOMS id type xs ys zs
1 1 0.33187 0.497438 0.304361
6 4 0.404093 0.424338 0.250536
7 4 0.24803 0.439464 0.471783
9 4 0.358283 0.318416 0.228977
10 3 0.166698 0.417391 0.42522
14 3 0.417117 0.244034 0.212419
15 3 0.26407 0.310501 0.210824
16 2 0.255407 0.466867 0.284856
4 4 0.513928 0.426714 0.422386
5 1 0.505488 0.421826 0.306787
8 4 0.514946 0.321998 0.475105
13 3 0.55463 0.246716 0.430029
20 2 0.557754 0.47892 0.272659
21 2 0.535926 0.345015 0.288397
2 4 0.327199 0.508738 0.419706
3 1 0.434178 0.500149 0.463666
17 2 0.338444 0.574017 0.269149
18 2 0.468069 0.577428 0.469839
11 3 0.256656 0.42032 0.56575
12 3 0.491891 0.315855 0.568406
19 2 0.42059 0.47176 0.542241
