LAMMPS data file

5 atom types
5 bond types
7 angle types
11 dihedral types
1 improper types

10 atoms
10 bonds
17 angles
28 dihedrals
1 impropers

-1.000000   54.000000 xlo xhi
-1.000000   54.000000 ylo yhi
-1.000000   54.000000 zlo zhi

Masses

   1   12.010  #       EC    c
   2   16.000  #       EC    o
   3   16.000  #       EC   os
   4   12.010  #       EC   c3
   5    1.008  #       EC   h1

Pair Coeffs

   1    0.1050000 3.750  #       EC    c    #OPLS-AA Charifson 1990
   2    0.2100000 2.960  #       EC    o    #OPLS-AA Charifson 1990
   3    0.1700000 3.000  #       EC   os    #OPLS-AA Charifson 1990
   4    0.0660000 3.500  #       EC   c3    #OPLS-AA Charifson 1990
   5    0.0150000 2.420  #       EC   h1    #OPLS-AA Charifson 1990

Bond Coeffs

1     570.0000 1.229            #C=O URA,GUA,CYT,AA KOLLMAN 1986 & EC  from silva 2007   
2     214.0000 1.327            #C-OS J.Comp.Chem.1990,11,1181 SKF8
3     320.0000 1.410            #C3-OS propylene carbonate D JORG ###
4     268.0000 1.529            #C3-C3 propylene carbonate D JORG JCAS 1996
5     340.0000 1.090            #C3-H propylene carbonate D JORG JCAS 1996

Angle Coeffs

1     83.00000 116.90           #c-os-c3 silva 2007 Charifson 1990
2     83.00000 123.40           #o-c-os silva 2007 Charifson 1990
3     92.60000 111.55           #os-c-os DAMM 1997
4     50.00000 109.50           #o-c3-c3 DAMM 1997
5     35.00000 109.50           #os-c3-H DAMM 1997
6     37.50000 110.70           #c3-c3-H JACS 1996
7     33.00000 107.80           #H-c3-H 1996

Dihedral Coeffs

1  harmonic   3.200000 -1 2  #O-C-OS-C3        JPCB 2004, 2016
2  harmonic   1.400000 -1 1  #O-C-OS-C3        JPCB 2004, 2016
3  harmonic   2.700000 -1 2  #OS-C-OS-C3       JPCB 2004, 2016
4  harmonic  0.3830000 1 3   #C3-C3-OS-C 1-3   JPCB 2004, 2016
5  harmonic  0.8000000 -1 1  #C3-C3-OS-C 1-3   JPCB 2004, 2016
6  harmonic  0.3830000 1 3   #H-C3-OS-C        JPCB 2004, 2016
7  harmonic  0.1750000 1 2   #OS-C3-C3-OS 1-3  JPCB 2004, 2016
8  harmonic   0.469000 1 5   #OS-C3-C3-OS 1-3  JPCB 2004, 2016
9  harmonic          0 1 3   #
10 harmonic   0.2500000 1 1  #OS-C3-C3-H       JPCB 2004, 2016
11 harmonic   0.1560000 1 3  #H-C3-C3-H        JPCB 2004, 2016

Improper Coeffs

1     10.50000 -1 2  #KOLLMAN 1986

Atoms

1  1  1  0.8610  25.3353  36.0967  46.2987  #  C
2  1  2  -0.5510  25.6553  34.9559  46.1423  #  O
3  1  3  -0.3740  26.0742  37.1733  45.9053  #  OS
4  1  3  -0.3740  24.1809  36.5074  46.8945  #  OS
5  1  4  0.0680  25.4706  38.3808  46.4063  #  C3
6  1  4  0.0680  24.0455  37.9343  46.7532  #  C3
7  1  5  0.0755  25.5157  39.1424  45.6203  #  H
8  1  5  0.0755  26.0369  38.7157  47.2849  #  H
9  1  5  0.0755  23.3272  38.1385  45.9479  #  H
10  1  5  0.0755  23.6719  38.3423  47.6983  #  H

Bonds

1 1 1 2
2 2 1 3
3 2 1 4
4 3 3 5
5 3 4 6
6 4 5 6
7 5 5 7
8 5 5 8
9 5 6 9
10 5 10 6

Angles

1 1 1 3 5
2 1 1 4 6
3 2 2 1 3
4 2 2 1 4
5 3 3 1 4
6 4 3 5 6
7 5 3 5 7
8 5 3 5 8
9 4 4 6 5
10 5 4 6 9
11 5 10 6 4
12 6 5 6 9
13 6 10 6 5
14 6 6 5 7
15 6 6 5 8
16 7 7 5 8
17 7 10 6 9

Dihedrals

1 1 2 1 3 5
2 2 2 1 3 5
3 3 4 1 3 5
4 1 2 1 4 6
5 2 2 1 4 6
6 3 3 1 4 6
7 4 1 3 5 6
8 5 1 3 5 6
9 6 1 3 5 7
10 6 1 3 5 8
11 4 1 4 6 5
12 5 1 4 6 5
13 6 1 4 6 9
14 6 1 4 6 10
15 7 3 5 6 4
16 8 3 5 6 4
17 9 7 5 6 4
18 10 7 5 6 4
19 9 8 5 6 4
20 10 8 5 6 4
21 9 3 5 6 9
22 10 3 5 6 9
23 11 7 5 6 9
24 11 8 5 6 9
25 9 3 5 6 10
26 10 3 5 6 10
27 11 7 5 6 10
28 11 8 5 6 10

Impropers

1 1 2 3 1 4

