LAMMPS data file

7 atom types
10 bond types
17 angle types
28 dihedral types

10 atoms
10 bonds
17 angles
28 dihedrals

-1.000000   54.000000 xlo xhi
-1.000000   54.000000 ylo yhi
-1.000000   54.000000 zlo zhi

Masses

1   12.010  #C3/Cf
2   1.008  #Hf
3  16.000  #O3/Of
4  12.010  #C
5  16.000  #O
6   1.008  #Hc
7  19.000  #F

Pair Coeffs

1    0.0660000 3.500  #            C3/Cf Cornell 1995
2   0.0150000 2.420  #            Hf Cornell 1995
3   0.1700000 3.000  #            o3/Of Cornell 1995
4   0.1050000 3.750  #            c Cornell 1995
5   0.2100000 2.960  #            o Cornell 1995
6   0.0150000 2.420  #            Hc Cornell 1995
7   0.0610000 3.118  #            F Cornell 1995

Bond Coeffs

1    3.31700000e+02    1.09610000e+00  #Cf-Hf
2    3.08600000e+02    1.43160000e+00  #Cf-Of 
3    3.00900000e+02    1.53750000e+00  #Cf-C3
4   3.56900000e+02    1.34970000e+00  #Cf-F
5   3.90800000e+02    1.35840000e+00  #C-Of
6   6.37700000e+02    1.21830000e+00  #C=O
7   3.90800000e+02    1.35840000e+00  #C-O3
8   3.08600000e+02    1.43160000e+00  #O3-C3
9   3.30600000e+02    1.09690000e+00  #C3-Hc
10   3.30600000e+02    1.09690000e+00 #C3-Hc

Angle Coeffs

1    6.32800000e+01    1.15980050e+02  #Cf-Of-C
2    6.80000000e+01    1.07970050e+02  #Cf-C3-O3
3    4.63900000e+01    1.09560050e+02  #Cf-C3-Hc
4    4.63900000e+01    1.09560050e+02  #Cf-C3-Hc
5    5.08500000e+01    1.09580050e+02  #Hf-Cf-Of
6    4.62500000e+01    1.10220050e+02  #Hf-Cf-C3
7    5.11500000e+01    1.08790050e+02  #Hf-Cf-F
8    6.80000000e+01    1.07970050e+02  #Of-Cf-C3
9    7.07600000e+01    1.10580050e+02  #Of-Cf-F
10    7.53200000e+01    1.23250050e+02 #Of-C-O
11    7.56200000e+01    1.11290050e+02 #Of-C-O3
12    6.32800000e+01    1.15980050e+02 #C-O3-C3
13    7.53200000e+01    1.23250050e+02 #O-C-O3
14    5.08000000e+01    1.09780050e+02 #O3-C3-Hc
15    5.08000000e+01    1.09780050e+02 #O3-C3-Hc
16    6.61100000e+01    1.09240050e+02 #C3-Cf-F
17    3.92400000e+01    1.08460050e+02 #Hc-C3-Hc

Dihedral Coeffs

1 charmm    2.70000000e+00     2    180     0        #Cf-Of-C-O
2 charmm    1.40000000e+00     1    180     0        #Cf-Of-C-O
3 charmm    2.70000000e+00     2    180     0        #Cf-Of-C-O3
4 charmm    8.00000000e-01     1    180     0        #Cf-C3-O3-C
5 multi/harmonic    3.82999522e-01     -1.14899857e+00    0.00000000e+00     1.53199809e+00    0.00000000e+00    #Cf-C3-O3-C
6 multi/harmonic    3.83334130e-01     -1.15000239e+00    0.00000000e+00     1.53333652e+00    0.00000000e+00    #Hf-Cf-Of-C
7 multi/harmonic    1.55554493e-01     -4.66663480e-01    0.00000000e+00     6.22217973e-01    0.00000000e+00    #Hf-Cf-C3-O3
8 multi/harmonic    1.55554493e-01     -4.66663480e-01    0.00000000e+00     6.22217973e-01    0.00000000e+00    #Hf-Cf-C3-Hc
9 multi/harmonic    1.55554493e-01     -4.66663480e-01    0.00000000e+00     6.22217973e-01    0.00000000e+00    #Hf-Cf-C3-Hc
10 multi/harmonic    0.00000000e+00     0.00000000e+00    2.35000000e+00     0.00000000e+00    0.00000000e+00    #Of-Cf-C3-O3
11 multi/harmonic    1.44000956e-01     -4.32002868e-01    0.00000000e+00     5.76003824e-01    0.00000000e+00    #Of-Cf-C3-O3
12 multi/harmonic    2.50000000e-01     2.50000000e-01    0.00000000e+00     0.00000000e+00    0.00000000e+00    #Of-Cf-C3-Hc
13 multi/harmonic    0.00000000e+00     0.00000000e+00    0.00000000e+00     0.00000000e+00    0.00000000e+00    #Of-Cf-C3-Hc
14 multi/harmonic    0.00000000e+00     0.00000000e+00    0.00000000e+00     0.00000000e+00    0.00000000e+00    #Of-Cf-C3-Hc
15 multi/harmonic    2.50000000e-01     2.50000000e-01    0.00000000e+00     0.00000000e+00    0.00000000e+00    #Of-Cf-C3-Hc
16 charmm    2.70000000e+00     2    180     0        #Of-C-O3-C3
17 multi/harmonic    3.83334130e-01     -1.15000239e+00    0.00000000e+00     1.53333652e+00    0.00000000e+00    #C-O3-C3-Hc
18 multi/harmonic    3.83334130e-01     -1.15000239e+00    0.00000000e+00     1.53333652e+00    0.00000000e+00    #C-O3-C3-Hc
19 charmm    1.40000000e+00     1    180     0        #O-C-O3-C3
20 charmm    2.70000000e+00     2    180     0        #O-C-O3-C3
21 charmm    8.00000000e-01     1    180     0        #C3-Cf-Of-C
22 multi/harmonic    3.82999522e-01     -1.14899857e+00    0.00000000e+00     1.53199809e+00    0.00000000e+00    #C3-Cf-Of-C
23 multi/harmonic    3.83334130e-01     -1.15000239e+00    0.00000000e+00     1.53333652e+00    0.00000000e+00    #F-Cf-Of-C
24 multi/harmonic    1.55554493e-01     -4.66663480e-01    0.00000000e+00     6.22217973e-01    0.00000000e+00    #F-Cf-C3-O3
25 multi/harmonic    0.00000000e+00     0.00000000e+00    0.00000000e+00     0.00000000e+00    0.00000000e+00    #F-Cf-C3-Hc
26 multi/harmonic    1.90000000e-01     1.90000000e-01    0.00000000e+00     0.00000000e+00    0.00000000e+00    #F-Cf-C3-Hc
27 multi/harmonic    0.00000000e+00     0.00000000e+00    0.00000000e+00     0.00000000e+00    0.00000000e+00    #F-Cf-C3-Hc
28 multi/harmonic    1.90000000e-01     1.90000000e-01    0.00000000e+00     0.00000000e+00    0.00000000e+00    #F-Cf-C3-Hc

Improper Coeffs

1     10.50000 -1 2  #KOLLMAN 1986

Atoms

1  1  1  0.3295  36.9107  9.7016  35.3263  #  Cf
2  1  2  0.0807  35.9476  9.4597  34.8637  #  Hf
3  1  3  -0.3541  36.7006  10.1823  36.6245  #  Of
4  1  4  0.816  37.5785  11.215  36.8947  #  C
5  1  5  -0.5091  37.7111  11.7216  37.9638  #  O
6  1  3  -0.3316  38.237  11.5641  35.761  #  O3
7  1  1  -0.0061  37.7358  10.7989  34.653  #  C3
8  1  6  0.1038  38.5793  10.387  34.0898  #  Hc
9  1  6  0.1038  37.122  11.4493  34.0166  #  Hc
10  1  7  -0.2329  37.6408  8.5204  35.3921  #  F

Bonds

1 1 1 2
2 2 1 3
3 3 1 7
4 4 1 10
5 5 3 4
6 6 4 5
7 7 4 6
8 8 6 7
9 9 7 8
10 10 7 9

Angles

1 1 1 3 4
2 2 1 7 6
3 3 1 7 8
4 4 1 7 9
5 5 2 1 3
6 6 2 1 7
7 7 2 1 10
8 8 3 1 7
9 9 3 1 10
10 10 3 4 5
11 11 3 4 6
12 12 4 6 7
13 13 5 4 6
14 14 6 7 8
15 15 6 7 9
16 16 7 1 10
17 17 8 7 9

Dihedrals

1 1 1 3 4 5
2 2 1 3 4 5
3 3 1 3 4 6
4 4 1 7 6 4
5 5 1 7 6 4
6 6 2 1 3 4
7 7 2 1 7 6
8 8 2 1 7 8
9 9 2 1 7 9
10 10 3 1 7 6
11 11 3 1 7 6
12 12 3 1 7 8
13 13 3 1 7 8
14 14 3 1 7 9
15 15 3 1 7 9
16 16 3 4 6 7
17 17 4 6 7 8
18 18 4 6 7 9
19 19 5 4 6 7
20 20 5 4 6 7
21 21 7 1 3 4
22 22 7 1 3 4
23 23 10 1 3 4
24 24 10 1 7 6
25 25 10 1 7 8
26 26 10 1 7 8
27 27 10 1 7 9
28 28 10 1 7 9

Impropers

1 1 5 4 3 6
