LAMMPS data file
# 1 Li

1 atom types
0 bond types
0 angle types
0 dihedral types
0 improper types

1 atoms
0 bonds
0 angles
0 dihedrals
0 impropers

  -1.000000   54.000000 xlo xhi
  -1.000000   54.000000 ylo yhi
  -1.000000   54.000000 zlo zhi

Masses

   1    6.940  #       Li

Pair Coeffs

   1    0.0005000 2.870  #       Li         # JCTC 2006

Atoms

1  1  1  1  16.0126  34.0688  37.8399  #  Li
