units  real
atom_style  full
boundary  p p p
pair_style  lj/cut/coul/long 12
kspace_style  ewald 0.0001
pair_modify tail yes
pair_modify mix arithmetic
special_bonds  amber
bond_style  harmonic
angle_style  harmonic
read_data  nvt.data
  orthogonal box = (-15 -15 -15) to (15 15 15)
  2 by 2 by 4 MPI processor grid
  reading atoms ...
  648 atoms
  scanning bonds ...
  1 = max bonds/atom
  scanning angles ...
  1 = max angles/atom
  reading bonds ...
  432 bonds
  reading angles ...
  216 angles
  2 = max # of 1-2 neighbors
  1 = max # of 1-3 neighbors
  1 = max # of 1-4 neighbors
  2 = max # of special neighbors
neighbor  2.0 bin
neigh_modify  delay 0 every 1 check yes page 1000000 one 20000
timestep  1.0
velocity  all zero linear units box
dump  DUMP all custom 2 nvt.dump id type x y z vx vy vz mol mass
thermo_style  custom step vol temp press ke pe etotal enthalpy evdwl ecoul epair ebond eangle edihed eimp emol elong etail lx ly lz xy xz yz density
thermo  1
fix  NVT all nvt temp 300 300 100.0
restart  50000 restart.nvt.1 restart.nvt.2
run  100
Ewald initialization ...
  G vector (1/distance) = 0.199063
  estimated absolute RMS force accuracy = 0.0345148
  estimated relative force accuracy = 0.00010394
  KSpace vectors: actual max1d max3d = 257 5 665
                  kxmax kymax kzmax  = 5 5 5
Neighbor list info ...
  1 neighbor list requests
  update every 1 steps, delay 0 steps, check yes
  master list distance cutoff = 14
  ghost atom cutoff = 14
WARNING: Inconsistent image flags (../domain.cpp:756)
Memory usage per processor = 6.67735 Mbytes
Step Volume Temp Press KinEng PotEng TotEng Enthalpy E_vdwl E_coul E_pair E_bond E_angle E_dihed E_impro E_mol E_long E_tail Lx Ly Lz Xy Xz Yz Density 
       0        27000            0   -66833.057            0    32555.322    32555.322    6238.6488    434.08621    5595.2434   -2073.2066    34562.213    66.315373            0            0    34628.528   -8102.5362    -1.309685           30           30           30            0            0            0   0.23933015 
       1        27000    4927.7761   -32075.346    9503.6307    22209.819     31713.45    19083.227    432.89853    5579.9584   -2091.6908    24238.779    62.731157            0            0     24301.51   -8104.5478    -1.309685           30           30           30            0            0            0   0.23933015 
       2        27000    13781.345     31456.14    26578.483    3532.1189    30110.602    42497.001    430.50985    5509.9018    -2168.554    5644.4622    56.210695            0            0    5700.6729   -8108.9656    -1.309685           30           30           30            0            0            0   0.23933015 
       3        27000    15872.248    50033.101    30610.964   -1182.6275    29428.337    49129.736    428.50464    5393.5796   -2289.9027    1062.9968    44.278352            0            0    1107.2751   -8111.9869    -1.309685           30           30           30            0            0            0   0.23933015 
       4        27000    12288.355    28784.748    23699.126   -285.12833    23413.998     34748.49    427.24543    5303.4038   -2378.2124    1807.6273    285.45668            0            0     2093.084   -8108.8616    -1.309685           30           30           30            0            0            0   0.23933015 
       5        27000    6037.8053   -21263.721    11644.415    12395.958    24040.373    15667.415    426.54628    5149.3066   -2526.0038    14622.244    299.71777            0            0    14921.962   -8101.8567    -1.309685           30           30           30            0            0            0   0.23933015 
       6        27000    550.33743   -61713.956     1061.372    23815.234    24876.606    575.66834    426.45357    5085.9286   -2585.9217    26107.925    293.23142            0            0    26401.156   -8098.3038    -1.309685           30           30           30            0            0            0   0.23933015 
       7        27000    2251.0269   -47575.607    4341.2946    20235.271    24576.565    5842.8465    426.87725     5087.984    -2586.072    22570.536    250.80672            0            0    22821.343   -8100.9332    -1.309685           30           30           30            0            0            0   0.23933015 
       8        27000    9020.6524    6064.1782    17397.087    5847.1501    23244.237    25632.112    427.77107    5122.2547   -2557.6258    8209.0798    195.69614            0            0    8404.7759   -8107.6517    -1.309685           30           30           30            0            0            0   0.23933015 
       9        27000    12681.807    41090.668    24457.931   -2122.3324    22335.598     38515.76    429.11919    5263.8291   -2418.2937    112.77849    183.18282            0            0    295.96131    -8111.242    -1.309685           30           30           30            0            0            0   0.23933015 
      10        27000    12355.872    41965.144    23829.338   -1857.5375      21971.8    38496.302    430.88588    5314.4564   -2361.5174    190.19382    313.78607            0            0    503.97989   -8106.8597    -1.309685           30           30           30            0            0            0   0.23933015 
      11        27000    8320.9787    9893.6199    16047.707    6133.9404    22181.648    26077.432    433.29575    5326.0005   -2340.1258    8080.9203    393.14601            0            0    8474.0663   -8099.4221    -1.309685           30           30           30            0            0            0   0.23933015 
      12        27000    1877.2807   -38440.421    3620.4938    19437.396     23057.89    7921.3093    435.50628     5281.682   -2378.2769    21385.827    429.84661            0            0    21815.673   -8095.4652    -1.309685           30           30           30            0            0            0   0.23933015 
      13        27000    647.69834   -49222.196    1249.1407    21968.004    23217.145    3835.0536     435.6584    5213.3708   -2446.6101    23985.217    429.39789            0            0    24414.614   -8095.6393    -1.309685           30           30           30            0            0            0   0.23933015 
      14        27000    5903.5251   -12622.044    11385.445    10819.526    22204.971    17234.822    433.53534    5143.9402   -2521.7368    12947.948    393.31502            0            0    13341.263   -8099.2124    -1.309685           30           30           30            0            0            0   0.23933015 
      15        27000     11189.37    27122.897    21579.641    -567.0272    21012.614    31692.724    431.17805     5080.801   -2593.2343    1716.5131    309.69398            0            0    2026.2071   -8105.2134    -1.309685           30           30           30            0            0            0   0.23933015 
      16        27000    13718.473    38423.003    26457.228   -653.97996    25803.248     40932.97    430.00641    5041.3453   -2639.1731    1879.6111    105.58213            0            0    1985.1932   -8110.5248    -1.309685           30           30           30            0            0            0   0.23933015 
      17        27000     11856.55    19660.075    22866.353     2176.649    25043.002    32784.497     429.9348    5006.1989   -2673.7562    4695.1567    155.24844            0            0    4850.4052   -8109.8899    -1.309685           30           30           30            0            0            0   0.23933015 
      18        27000    4601.3692   -34091.842    8874.1276     16952.04    25826.167    12401.914    430.74654    5052.2415   -2621.0287    19389.368    183.70055            0            0    19573.068   -8104.0168    -1.309685           30           30           30            0            0            0   0.23933015 
      19        27000    310.48936   -63423.728    598.80485    25842.678    26441.483     1467.292    432.14675    5175.8744   -2492.4127    28156.112    178.97885            0            0     28335.09   -8100.4339    -1.309685           30           30           30            0            0            0   0.23933015 
      20        27000    3929.4089   -34070.818    7578.1956     18182.12    25760.316    12344.342    433.80046    5286.2234   -2382.6442    20408.506    156.25874            0            0    20564.764    -8102.668    -1.309685           30           30           30            0            0            0   0.23933015 
      21        27000    10940.065    22349.779    21098.835    3204.2275    24303.062    33103.675    435.55839    5430.4959    -2242.543    5324.2322    122.53827            0            0    5446.7705   -8108.5973    -1.309685           30           30           30            0            0            0   0.23933015 
      22        27000     12823.08    45018.869    24730.389   -1221.4377    23508.951     41235.91    437.37106    5539.4094   -2134.1406    833.36718    79.335683            0            0    912.70287    -8110.921    -1.309685           30           30           30            0            0            0   0.23933015 
      23        27000    10589.187    35395.896    20422.137   -1456.7405    18965.397    32903.143    439.32449    5542.2869   -2125.6847     645.8419    23.102236            0            0    668.94413   -8107.2961    -1.309685           30           30           30            0            0            0   0.23933015 
      24        27000    5932.9298   -2077.3752    11442.154    7864.6308    19306.785    18488.782    441.67382    5471.3316   -2189.5463    10005.678    48.499452            0            0    10054.177   -8102.5517    -1.309685           30           30           30            0            0            0   0.23933015 
      25        27000    842.67619   -41988.019    1625.1719    18381.405    20006.577    3473.0674    443.83408    5351.4678   -2304.7287    20586.284    99.849659            0            0    20686.133   -8100.0306    -1.309685           30           30           30            0            0            0   0.23933015 
      26        27000    1259.4732   -41789.322         2429    17459.641    19888.641    3433.3723    444.78089    5225.4482   -2429.7212    19724.907    164.45568            0            0    19889.362   -8099.9503    -1.309685           30           30           30            0            0            0   0.23933015 
      27        27000    6491.2146   -5000.9088    12518.853    6323.2929    18842.146    16872.952    444.73658    5125.8347   -2531.2821    8649.4208    205.15416            0            0    8854.5749   -8101.8533    -1.309685           30           30           30            0            0            0   0.23933015 
      28        27000    10162.334     24682.93    19598.916   -1736.0664    17862.849     27582.18    445.02819    5068.0723   -2592.4396    633.71177    222.66144            0            0    856.37321   -8105.5402    -1.309685           30           30           30            0            0            0   0.23933015 
      29        27000    11191.794    30121.095    21584.315   -1778.8815    19805.434    31666.136    446.38592    5054.5696   -2607.9496    703.46342    125.60469            0            0    829.06811   -8108.9051    -1.309685           30           30           30            0            0            0   0.23933015 
      30        27000    8872.2239     10673.59     17110.83    2445.5307    19556.361    23759.271    448.53243    5046.6144   -2613.2945     4883.575    175.25025            0            0    5058.8252   -8108.4413    -1.309685           30           30           30            0            0            0   0.23933015 
      31        27000    2808.6347   -32033.965    5416.6883    14794.826    20211.514    7597.5856    451.19822    5068.4494   -2585.4171    17173.478    206.76453            0            0    17380.243   -8105.0647    -1.309685           30           30           30            0            0            0   0.23933015 
      32        27000       155.04   -48440.804    299.00769    20295.903    20594.911    1520.5059    454.09062    5170.7719   -2479.1116    22551.221    223.79402            0            0    22775.015   -8103.9741    -1.309685           30           30           30            0            0            0   0.23933015 
      33        27000    3928.4163   -18315.435    7576.2812    12291.085    19867.366    12655.347    456.97662    5157.9814   -2491.8475    14557.972    224.96067            0            0    14782.932   -8106.8055    -1.309685           30           30           30            0            0            0   0.23933015 
      34        27000    9401.6125    25459.976      18131.8     596.0031    18727.804     28753.11    459.83973    5256.0089   -2394.2963    2776.8711    213.42829            0            0    2990.2994   -8110.1449    -1.309685           30           30           30            0            0            0   0.23933015 
      35        27000    10209.722    36511.697    19690.308    -1148.865    18541.443    32918.555    462.76066    5271.0663   -2375.0352    982.87809    243.29208            0            0    1226.1702   -8108.8621    -1.309685           30           30           30            0            0            0   0.23933015 
      36        27000    8137.5557    24592.119    15693.961   -1489.8792    14204.081    23887.654     465.8299     5190.073   -2448.5588     623.4469    335.23264            0            0    958.67954   -8104.4617    -1.309685           30           30           30            0            0            0   0.23933015 
      37        27000    4444.7076   -7578.6342    8571.9924    5911.3581     14483.35    11499.132    469.28257    5083.5816   -2547.8117    8110.2914    348.87842            0            0    8459.1698   -8100.6759    -1.309685           30           30           30            0            0            0   0.23933015 
      38        27000    602.82705   -38861.071    1162.6027    13848.637     15011.24    -290.9794    472.63132    4993.1192   -2633.5512     16155.52    326.66807            0            0    16482.188   -8099.3017    -1.309685           30           30           30            0            0            0   0.23933015 
      39        27000    1082.6954   -36869.583    2088.0692    12804.264    14892.333    374.29655    475.23115    4957.0973   -2667.8426    15196.361    275.74502            0            0    15472.106   -8100.1711    -1.309685           30           30           30            0            0            0   0.23933015 
      40        27000    5171.2753   -5825.4627    9973.2394    4091.4122    14064.652    11770.775    477.31622    4990.3912   -2635.2988    6515.7986    210.91237            0            0     6726.711   -8103.0062    -1.309685           30           30           30            0            0            0   0.23933015 
      41        27000    7900.0213    19405.831    15235.855   -1914.0654     13321.79    20963.172    479.72728    5077.3353   -2550.1922    489.96771    146.15914            0            0    636.12684   -8107.2548    -1.309685           30           30           30            0            0            0   0.23933015 
      42        27000    8976.0462    26728.313     17311.06   -1390.2144    15920.846    26445.581    482.81191    5185.9708   -2441.8155    917.45946    134.14169            0            0    1051.6011   -8110.5982    -1.309685           30           30           30            0            0            0   0.23933015 
      43        27000    7696.5083    15500.687    14843.364    900.42894    15743.792    21847.456     486.2044    5250.8711   -2373.4692    3183.8029     90.09527            0            0    3273.8981   -8110.5447    -1.309685           30           30           30            0            0            0   0.23933015 
      44        27000     2822.959   -19351.845    5444.3139    10853.785    16298.099     8677.975    489.65279    5326.7092   -2291.4193     13044.21    100.99462            0            0    13145.204   -8107.7813    -1.309685           30           30           30            0            0            0   0.23933015 
      45        27000    202.70695   -37381.359    390.93741    16290.668    16681.605    1962.0483    492.91491    5378.4532   -2235.2114    18418.022    107.85697            0            0    18525.879   -8106.5794    -1.309685           30           30           30            0            0            0   0.23933015 
      46        27000    2839.9854   -17821.161    5477.1507    10669.972    16147.123    9129.7322      495.946    5293.9076   -2318.7185    12886.352    102.33808            0            0     12988.69    -8108.572    -1.309685           30           30           30            0            0            0   0.23933015 
      47        27000    7380.0061    16421.837    14232.963    948.34587    15181.308    21647.691    498.87198    5262.5738   -2350.1734    3228.2881    70.231194            0            0    3298.5193   -8111.6193    -1.309685           30           30           30            0            0            0   0.23933015 
      48        27000     8511.776    27488.533    16415.676   -1622.5478    14793.128    25617.214    501.92856    5207.6799   -2402.0102    736.73785    42.724513            0            0    779.46236   -8111.6187    -1.309685           30           30           30            0            0            0   0.23933015 
      49        27000    7495.8631    20262.204    14456.403   -1975.6697    12480.733    20459.326    505.31984     5085.872    -2516.844    387.06169    154.11264            0            0    541.17433   -8108.0359    -1.309685           30           30           30            0            0            0   0.23933015 
      50        27000    4869.9076   -3956.1097    9392.0265    3186.1995    12578.226    11020.439    509.32379    4978.3088   -2615.3289    5588.1369    213.39156            0            0    5801.5284   -8102.9615    -1.309685           30           30           30            0            0            0   0.23933015 
      51        27000    1030.4842   -33766.068    1987.3754    11095.714    13083.089   -212.88434    513.61663    4918.4535   -2667.3695    13513.293    249.79085            0            0    13763.084   -8099.4397    -1.309685           30           30           30            0            0            0   0.23933015 
      52        27000    486.84055   -36990.467    938.91295    12205.117     13144.03    -1421.606    517.51584    4922.2562   -2659.0592      14605.3    258.87663            0            0    14864.177   -8098.8312    -1.309685           30           30           30            0            0            0   0.23933015 
      53        27000    3775.2679   -9843.9888    7280.9216    5211.1108    12492.032    8615.7915    520.81644    4981.3471   -2599.1921    7564.3119    245.99109            0            0    7810.3029   -8101.3557    -1.309685           30           30           30            0            0            0   0.23933015 
      54        27000    6881.5556     18870.72    13271.659   -1530.7793    11740.879    19171.552    523.95747    5069.3905   -2512.7039    760.26026    221.66433            0            0     981.9246   -8106.0519    -1.309685           30           30           30            0            0            0   0.23933015 
      55        27000    7674.1168    27159.125     14800.18    -922.5571    13877.623    24571.998    527.25942    5149.0146   -2434.1187    1268.1164    243.44519            0            0    1511.5616   -8110.3927    -1.309685           30           30           30            0            0            0   0.23933015 
      56        27000    6668.5507    20848.864    12860.861    -1031.159    11829.702    20039.303    530.57716    5190.1208   -2390.7347    1126.1507    233.42496            0            0    1359.5757   -8111.4326    -1.309685           30           30           30            0            0            0   0.23933015 
      57        27000    3307.8086   -6122.8514    6379.3871    5922.5151    12301.902    9890.9235    533.69574    5209.8542   -2365.5742    8009.7276    278.36169            0            0    8288.0893   -8109.1241    -1.309685           30           30           30            0            0            0   0.23933015 
      58        27000    400.06818   -29819.951    771.56513    12011.897    12783.462    1041.3405    536.58377    5059.0499   -2511.2651    14230.284    292.87801            0            0    14523.162   -8106.8987    -1.309685           30           30           30            0            0            0   0.23933015 
      59        27000    1326.0644   -25096.049    2557.4268    10024.262    12581.689    2699.6853    539.35598    4987.7505   -2580.4315    12322.655    282.03861            0            0    12604.694    -8107.538    -1.309685           30           30           30            0            0            0   0.23933015 
      60        27000     4926.002    559.61875    9500.2092    2351.3269    11851.536    12071.896    542.15815    4971.1739    -2597.221    4696.7421    251.80586            0            0    4948.5479    -8110.553    -1.309685           30           30           30            0            0            0   0.23933015 
      61        27000    6890.6502    17167.966    13289.198   -1963.2988      11325.9    18086.083    545.18193    4957.3595   -2609.9431     434.5189    212.12533            0            0    646.64423   -8112.4845    -1.309685           30           30           30            0            0            0   0.23933015 
      62        27000    7344.8325      18657.9    14165.127   -1529.5448    12635.582    19982.453    548.58363    4925.4797   -2636.7084    937.36851    169.79506            0            0    1107.1636   -8110.7717    -1.309685           30           30           30            0            0            0   0.23933015 
      63        27000    6114.9909    6726.0322    11793.274    557.12258    12350.397    14998.888    552.53311    4941.5492   -2611.7728    3015.5505    153.34491            0            0    3168.8954   -8105.8551    -1.309685           30           30           30            0            0            0   0.23933015 
      64        27000    2282.6473   -21177.744    4402.2774    8380.4281    12782.706    4443.6022     556.8258    5004.7059   -2539.5297    10761.721      158.237            0            0    10919.958   -8101.0613    -1.309685           30           30           30            0            0            0   0.23933015 
      65        27000      278.407   -33798.598    536.93132    12525.429     13062.36   -246.42265    560.77331    5096.2959   -2442.2092    14816.472    151.16571            0            0    14967.638   -8099.2784    -1.309685           30           30           30            0            0            0   0.23933015 
      66        27000    2373.8224   -15602.486    4578.1161     8065.998    12644.114    6500.3652    563.73342    5188.7245   -2348.9947    10280.224    134.76859            0            0    10414.993   -8101.4525    -1.309685           30           30           30            0            0            0   0.23933015 
      67        27000    5944.2256    14525.073    11463.939    391.62211    11855.561     17575.06    565.76968    5259.1284   -2281.3284      2561.44    111.51049            0            0    2672.9505   -8106.2264    -1.309685           30           30           30            0            0            0   0.23933015 
      68        27000    7191.6156    27266.233    13869.635   -1710.3041    12159.331    22895.883    567.42037    5289.6342   -2253.4841    456.11572    87.064261            0            0    543.17998   -8110.5387    -1.309685           30           30           30            0            0            0   0.23933015 
      69        27000    6764.5334    23538.245    13045.972    -1543.806    11502.166    20770.757    569.06185    5260.1692   -2282.6182    669.98523    68.827002            0            0    738.81223   -8111.8493    -1.309685           30           30           30            0            0            0   0.23933015 
      70        27000    4645.8534    3177.9877     8959.919     2526.418    11486.337    12737.725    570.66659    5132.6023   -2406.3755      4821.25    111.54344            0            0    4932.7934   -8109.6443    -1.309685           30           30           30            0            0            0   0.23933015 
      71        27000    1326.9835   -24702.508    2559.1993    9352.2967    11911.496    2184.4562    572.38846    5012.2086   -2521.7394    11722.711    151.32532            0            0    11874.036   -8106.3365    -1.309685           30           30           30            0            0            0   0.23933015 
      72        27000     677.0852   -31768.604    1305.8158    10659.635    11965.451   -543.98635    574.33992    4887.6619   -2643.6735    13122.553    180.75599            0            0    13303.309   -8105.6753    -1.309685           30           30           30            0            0            0   0.23933015 
      73        27000     3338.502   -12542.337    6438.5818    5010.2034    11448.785    6510.0231    576.61408    4860.4038   -2671.1938    7484.9341     196.4632            0            0    7681.3973   -8108.2117    -1.309685           30           30           30            0            0            0   0.23933015 
      74        27000     6075.195    10503.392    11716.524   -896.02095    10820.503    14956.396    579.28673    4901.1749   -2630.4248    1528.5471    205.85676            0            0    1734.4038   -8110.8864    -1.309685           30           30           30            0            0            0   0.23933015 
      75        27000    6320.8853    17080.136    12190.359   -1589.2306    10601.128    17326.727    582.34876    4920.5662   -2607.3063    709.51651    308.55921            0            0    1018.0757   -8110.2213    -1.309685           30           30           30            0            0            0   0.23933015 
      76        27000    5275.3642    12214.246    10173.984   -909.98364         9264    14073.571    585.58357    4956.2694   -2564.5642    1375.5752    279.00536            0            0    1654.5805   -8106.4172    -1.309685           30           30           30            0            0            0   0.23933015 
      77        27000    3196.0807   -3112.3187    6163.9105    3221.2804    9385.1909    8159.6616    588.95536    5008.2197   -2504.9252    5431.4803    294.72535            0            0    5726.2056   -8102.1002    -1.309685           30           30           30            0            0            0   0.23933015 
      78        27000    906.04303   -18893.108    1747.3802    7927.2694    9674.6496    2235.1614    591.99494    5054.3111   -2453.7145    10085.513    295.47051            0            0    10380.984   -8100.0206    -1.309685           30           30           30            0            0            0   0.23933015 
      79        27000    1058.9213   -16750.126    2042.2189    7561.8227    9604.0415    3008.3897    594.21022    5077.4297   -2429.9294    9716.3112    275.44081            0            0     9991.752   -8101.5693    -1.309685           30           30           30            0            0            0   0.23933015 
      80        27000      3387.43    1274.1944    6532.9437    2587.7224    9120.6661    9622.4022    595.50339    5070.1077   -2440.2413    4797.3989     230.5648            0            0    5027.9637   -8105.8524    -1.309685           30           30           30            0            0            0   0.23933015 
      81        27000    5526.0375    16957.817    10657.428   -1341.5299    9315.8983    15993.332    596.23623    5035.8388   -2477.7402    941.12658     195.0837            0            0    1136.2103   -8109.8152    -1.309685           30           30           30            0            0            0   0.23933015 
      82        27000     5457.166     16336.73    10524.604   -1397.1276    9127.4761    15560.346     596.8821    4979.2784   -2534.8463    987.37782    150.34092            0            0    1137.7187   -8111.0068    -1.309685           30           30           30            0            0            0   0.23933015 
      83        27000     4105.135    4678.1583    7917.0981    135.08239    8052.1805    9894.2862    597.78552     4910.363   -2601.3593     2541.568    194.87371            0            0    2736.4417   -8109.5078    -1.309685           30           30           30            0            0            0   0.23933015 
      84        27000    2432.4533   -11361.634    4691.1908    3467.5715    8158.7623    3684.9222      598.768    4864.3524    -2643.961    5904.9739    206.55861            0            0    6111.5325   -8107.0814    -1.309685           30           30           30            0            0            0   0.23933015 
      85        27000    1063.4736   -22643.844    2050.9983    6256.3385    8307.3369   -609.06855    599.98035    4851.2586   -2654.4795    8711.3643    199.45373            0            0    8910.8181   -8105.7185    -1.309685           30           30           30            0            0            0   0.23933015 
      86        27000    1541.1268   -17782.275    2972.1927     5200.183    8172.3758    1170.2971    601.48729    4909.2896   -2596.0382    7623.9042    172.31697            0            0    7796.2212   -8106.8151    -1.309685           30           30           30            0            0            0   0.23933015 
      87        27000    3255.5709   -1502.0395    6278.6423    1538.8382    7817.4804    7226.0264    603.30823    4997.0243   -2509.1065    3928.7296    119.21505            0            0    4047.9447    -8109.439    -1.309685           30           30           30            0            0            0   0.23933015 
      88        27000    4653.7922    13337.978    8975.2297   -1595.6886    7379.5411    12631.601    605.44132    5091.1781   -2414.5397    743.16351    75.687626            0            0    818.85114   -8111.1592    -1.309685           30           30           30            0            0            0   0.23933015 
      89        27000    4266.8776    14351.695    8229.0322   -732.86496    7496.1673    13147.396    607.85746    5161.0985   -2341.3071    1570.5082     37.93394            0            0    1608.4421    -8110.263    -1.309685           30           30           30            0            0            0   0.23933015 
      90        27000    3247.9779    7742.9402    6263.9986    999.69403    7263.6926    10312.609    610.32737    5175.4922    -2321.943    3249.5324     72.10463            0            0     3321.637   -8107.7626    -1.309685           30           30           30            0            0            0   0.23933015 
      91        27000    2501.2731   -385.22038    4823.9156    2393.7982    7217.7138    7066.0266    612.97647    5147.2786   -2344.5985    4628.2749    110.12177            0            0    4738.3967   -8104.8535    -1.309685           30           30           30            0            0            0   0.23933015 
      92        27000    1686.3725   -8997.2207    3252.3112    4010.0191    7262.3303     3719.519    615.53461    5084.3694   -2402.9523    6275.5376    137.43385            0            0    6412.9714   -8102.8563    -1.309685           30           30           30            0            0            0   0.23933015 
      93        27000    1708.7681   -10762.704     3295.503    3893.7041    7189.2071    2951.2062     617.5205    4998.7703   -2486.6145    6224.3497    155.96883            0            0    6380.3185   -8102.9053    -1.309685           30           30           30            0            0            0   0.23933015 
      94        27000    2741.1291   -4547.8555    5286.4979    1973.7731    7260.2711    5469.4743    618.59848    4910.9376   -2575.2378    4381.5989    167.41193            0            0    4549.0109   -8104.7738    -1.309685           30           30           30            0            0            0   0.23933015 
      95        27000    3862.6333     3889.799    7449.4132   -929.45858    6519.9547    8051.6304    618.88993    4838.6221   -2649.5406    1555.4378    164.64422            0            0     1720.082   -8107.0526    -1.309685           30           30           30            0            0            0   0.23933015 
      96        27000    3606.4296    3264.7137    6955.3029   -331.75754    6623.5453    7909.0829    618.89859    4796.4156   -2693.3251     2206.685    154.88263            0            0    2361.5676   -8108.6393    -1.309685           30           30           30            0            0            0   0.23933015 
      97        27000     3152.211   -254.80196    6079.3041    1259.4968    7338.8009    7238.4682    619.17644    4799.7134   -2690.4782    3780.4994    169.47564            0            0     3949.975    -8109.368    -1.309685           30           30           30            0            0            0   0.23933015 
      98        27000    3056.0153   -1556.1042    5893.7826    1199.9331    7093.7156    6480.9727     619.6429    4832.2854   -2657.2917    3670.6267    186.59803            0            0    3857.2248     -8109.22    -1.309685           30           30           30            0            0            0   0.23933015 
      99        27000    2285.4486   -6260.4311    4407.6799    2701.8306    7109.5105    4644.3575    620.40113    4888.3625   -2599.4898     5097.191    204.12941            0            0    5301.3205   -8108.2535    -1.309685           30           30           30            0            0            0   0.23933015 
     100        27000     1677.511   -8523.6053     3235.221    3907.3941    7142.6151     3786.298    621.53144    4955.1853   -2530.5282    6222.1259    215.79646            0            0    6437.9224    -8107.245    -1.309685           30           30           30            0            0            0   0.23933015 
Loop time of 0.314699 on 16 procs for 100 steps with 648 atoms

Pair  time (%) = 0.0465954 (14.8064)
Bond  time (%) = 0.000490561 (0.155883)
Kspce time (%) = 0.102257 (32.4937)
Neigh time (%) = 0.0562817 (17.8843)
Comm  time (%) = 0.0559702 (17.7853)
Outpt time (%) = 0.0478639 (15.2095)
Other time (%) = 0.00523962 (1.66496)

Nlocal:    40.5 ave 73 max 10 min
Histogram: 2 2 1 2 1 0 2 4 1 1
Nghost:    1558.12 ave 1742 max 1361 min
Histogram: 1 4 1 2 0 0 1 2 2 3
Neighs:    7622.56 ave 16144 max 1901 min
Histogram: 5 1 2 0 2 2 1 0 0 3

Total # of neighbors = 121961
Ave neighs/atom = 188.211
Ave special neighs/atom = 2
Neighbor list builds = 75
Dangerous builds = 60
write_restart  restart.nvt
Ewald initialization ...
  G vector (1/distance) = 0.199063
  estimated absolute RMS force accuracy = 0.0345148
  estimated relative force accuracy = 0.00010394
  KSpace vectors: actual max1d max3d = 257 5 665
                  kxmax kymax kzmax  = 5 5 5
write_data  restart.data
Ewald initialization ...
  G vector (1/distance) = 0.199063
  estimated absolute RMS force accuracy = 0.0345148
  estimated relative force accuracy = 0.00010394
  KSpace vectors: actual max1d max3d = 257 5 665
                  kxmax kymax kzmax  = 5 5 5
