  COHP#  atomMU  atomNU     distance     translation      ICOHP (at) eF   for spin  1
      1     Ag1     Ag1      4.84084       0   0  -1           -0.03512 
      2     Ag1     Ag1      4.84084       0  -1   0           -0.03389 
      3     Ag1     Ag1      4.84084      -1   0   0           -0.03390 
      4     Ag1     Ag1      4.84084       1   0   0           -0.03390 
      5     Ag1     Ag1      4.84084       0   1   0           -0.03389 
      6     Ag1     Ag1      4.84084       0   0   1           -0.03512 
      7     Ag1     Ag2      5.92879      -1  -1   0           -0.01106 
      8     Ag1     Ag2      5.92879       0  -1   0           -0.01237 
      9     Ag1     Ag2      3.42299      -1   0   0           -0.64756 
     10     Ag1     Ag2      3.42299       0   0   0           -0.41255 
     11     Ag1     Ag2      5.92879      -1   1   0           -0.01124 
     12     Ag1     Ag2      5.92879       0   1   0           -0.01236 
     13     Ag1     Ag2      5.92879      -1  -1   1           -0.01171 
     14     Ag1     Ag2      5.92879       0  -1   1           -0.01094 
     15     Ag1     Ag2      3.42299      -1   0   1           -0.41416 
     16     Ag1     Ag2      3.42299       0   0   1           -0.64646 
     17     Ag1     Ag2      5.92879      -1   1   1           -0.01177 
     18     Ag1     Ag2      5.92879       0   1   1           -0.01084 
     19     Ag1     Ag3      5.92879      -1  -1   0           -0.01085 
     20     Ag1     Ag3      3.42299       0  -1   0           -0.64799 
     21     Ag1     Ag3      5.92879       1  -1   0           -0.01082 
     22     Ag1     Ag3      5.92879      -1   0   0           -0.01243 
     23     Ag1     Ag3      3.42299       0   0   0           -0.41348 
     24     Ag1     Ag3      5.92879       1   0   0           -0.01229 
     25     Ag1     Ag3      5.92879      -1  -1   1           -0.01169 
     26     Ag1     Ag3      3.42299       0  -1   1           -0.41447 
     27     Ag1     Ag3      5.92879       1  -1   1           -0.01188 
     28     Ag1     Ag3      5.92879      -1   0   1           -0.01086 
     29     Ag1     Ag3      3.42299       0   0   1           -0.64653 
     30     Ag1     Ag3      5.92879       1   0   1           -0.01076 
     31     Ag1     Ag4      5.92879      -1  -1  -1           -0.01131 
     32     Ag1     Ag4      5.92879       0  -1  -1           -0.01072 
     33     Ag1     Ag4      5.92879      -1   0  -1           -0.01115 
     34     Ag1     Ag4      5.92879       0   0  -1           -0.01207 
     35     Ag1     Ag4      3.42299      -1  -1   0           -0.41172 
     36     Ag1     Ag4      3.42299       0  -1   0           -0.64560 
     37     Ag1     Ag4      3.42299      -1   0   0           -0.64600 
     38     Ag1     Ag4      3.42299       0   0   0           -0.41236 
     39     Ag1     Ag4      5.92879      -1  -1   1           -0.01154 
     40     Ag1     Ag4      5.92879       0  -1   1           -0.01111 
     41     Ag1     Ag4      5.92879      -1   0   1           -0.01087 
     42     Ag1     Ag4      5.92879       0   0   1           -0.01204 
     43     Ag1      O5      5.27518      -1  -1   0           -0.01600 
     44     Ag1      O5      4.01381       0  -1   0           -0.03610 
     45     Ag1      O5      4.01381      -1   0   0           -0.03615 
     46     Ag1      O5      2.09614       0   0   0           -3.39126 
     47     Ag1      O5      5.27518       0  -1   1           -0.01644 
     48     Ag1      O5      5.27518      -1   0   1           -0.01649 
     49     Ag1      O5      4.01381       0   0   1           -0.03650 
     50     Ag1      O6      4.01381       0   0   0           -0.03637 
     51     Ag1      O6      5.27518       1   0   0           -0.01639 
     52     Ag1      O6      5.27518       0   1   0           -0.01642 
     53     Ag1      O6      2.09614       0   0   1           -3.38970 
     54     Ag1      O6      4.01381       1   0   1           -0.03646 
     55     Ag1      O6      4.01381       0   1   1           -0.03656 
     56     Ag1      O6      5.27518       1   1   1           -0.01582 
     57     Ag2     Ag2      4.84084       0   0  -1           -0.03400 
     58     Ag2     Ag2      4.84084       0  -1   0           -0.03436 
     59     Ag2     Ag2      4.84084      -1   0   0           -0.03363 
     60     Ag2     Ag2      4.84084       1   0   0           -0.03363 
     61     Ag2     Ag2      4.84084       0   1   0           -0.03436 
     62     Ag2     Ag2      4.84084       0   0   1           -0.03400 
     63     Ag2     Ag3      5.92879       0  -1  -1           -0.01103 
     64     Ag2     Ag3      5.92879       1  -1  -1           -0.01164 
     65     Ag2     Ag3      5.92879       0   0  -1           -0.01217 
     66     Ag2     Ag3      5.92879       1   0  -1           -0.01115 
     67     Ag2     Ag3      3.42299       0  -1   0           -0.64742 
     68     Ag2     Ag3      3.42299       1  -1   0           -0.41276 
     69     Ag2     Ag3      3.42299       0   0   0           -0.41060 
     70     Ag2     Ag3      3.42299       1   0   0           -0.64726 
     71     Ag2     Ag3      5.92879       0  -1   1           -0.01138 
     72     Ag2     Ag3      5.92879       1  -1   1           -0.01168 
     73     Ag2     Ag3      5.92879       0   0   1           -0.01206 
     74     Ag2     Ag3      5.92879       1   0   1           -0.01092 
     75     Ag2     Ag4      5.92879      -1  -1  -1           -0.01157 
     76     Ag2     Ag4      3.42299       0  -1  -1           -0.41511 
     77     Ag2     Ag4      5.92879       1  -1  -1           -0.01167 
     78     Ag2     Ag4      5.92879      -1   0  -1           -0.01129 
     79     Ag2     Ag4      3.42299       0   0  -1           -0.64835 
     80     Ag2     Ag4      5.92879       1   0  -1           -0.01130 
     81     Ag2     Ag4      5.92879      -1  -1   0           -0.01112 
     82     Ag2     Ag4      3.42299       0  -1   0           -0.64837 
     83     Ag2     Ag4      5.92879       1  -1   0           -0.01103 
     84     Ag2     Ag4      5.92879      -1   0   0           -0.01217 
     85     Ag2     Ag4      3.42299       0   0   0           -0.41508 
     86     Ag2     Ag4      5.92879       1   0   0           -0.01219 
     87     Ag2      O5      5.27518       0  -1  -1           -0.01670 
     88     Ag2      O5      4.01381       0   0  -1           -0.03657 
     89     Ag2      O5      5.27518       1   0  -1           -0.01644 
     90     Ag2      O5      4.01381       0  -1   0           -0.03635 
     91     Ag2      O5      5.27518       1  -1   0           -0.01606 
     92     Ag2      O5      2.09614       0   0   0           -3.39170 
     93     Ag2      O5      4.01381       1   0   0           -0.03622 
     94     Ag2      O6      4.01381       0   0   0           -0.03589 
     95     Ag2      O6      2.09614       1   0   0           -3.39084 
     96     Ag2      O6      5.27518       0   1   0           -0.01610 
     97     Ag2      O6      4.01381       1   1   0           -0.03635 
     98     Ag2      O6      5.27518       0   0   1           -0.01636 
     99     Ag2      O6      4.01381       1   0   1           -0.03660 
    100     Ag2      O6      5.27518       1   1   1           -0.01650 
    101     Ag3     Ag3      4.84084       0   0  -1           -0.03424 
    102     Ag3     Ag3      4.84084       0  -1   0           -0.03415 
    103     Ag3     Ag3      4.84084      -1   0   0           -0.03437 
    104     Ag3     Ag3      4.84084       1   0   0           -0.03437 
    105     Ag3     Ag3      4.84084       0   1   0           -0.03415 
    106     Ag3     Ag3      4.84084       0   0   1           -0.03424 
    107     Ag3     Ag4      5.92879      -1  -1  -1           -0.01169 
    108     Ag3     Ag4      5.92879       0  -1  -1           -0.01116 
    109     Ag3     Ag4      3.42299      -1   0  -1           -0.41306 
    110     Ag3     Ag4      3.42299       0   0  -1           -0.64717 
    111     Ag3     Ag4      5.92879      -1   1  -1           -0.01185 
    112     Ag3     Ag4      5.92879       0   1  -1           -0.01106 
    113     Ag3     Ag4      5.92879      -1  -1   0           -0.01081 
    114     Ag3     Ag4      5.92879       0  -1   0           -0.01231 
    115     Ag3     Ag4      3.42299      -1   0   0           -0.64694 
    116     Ag3     Ag4      3.42299       0   0   0           -0.41317 
    117     Ag3     Ag4      5.92879      -1   1   0           -0.01091 
    118     Ag3     Ag4      5.92879       0   1   0           -0.01233 
    119     Ag3      O5      5.27518      -1   0  -1           -0.01643 
    120     Ag3      O5      4.01381       0   0  -1           -0.03645 
    121     Ag3      O5      5.27518       0   1  -1           -0.01651 
    122     Ag3      O5      4.01381      -1   0   0           -0.03623 
    123     Ag3      O5      2.09614       0   0   0           -3.39106 
    124     Ag3      O5      5.27518      -1   1   0           -0.01607 
    125     Ag3      O5      4.01381       0   1   0           -0.03619 
    126     Ag3      O6      4.01381       0   0   0           -0.03596 
    127     Ag3      O6      5.27518       1   0   0           -0.01613 
    128     Ag3      O6      2.09614       0   1   0           -3.39056 
    129     Ag3      O6      4.01381       1   1   0           -0.03631 
    130     Ag3      O6      5.27518       0   0   1           -0.01642 
    131     Ag3      O6      4.01381       0   1   1           -0.03655 
    132     Ag3      O6      5.27518       1   1   1           -0.01627 
    133     Ag4     Ag4      4.84084       0   0  -1           -0.03398 
    134     Ag4     Ag4      4.84084       0  -1   0           -0.03446 
    135     Ag4     Ag4      4.84084      -1   0   0           -0.03392 
    136     Ag4     Ag4      4.84084       1   0   0           -0.03392 
    137     Ag4     Ag4      4.84084       0   1   0           -0.03446 
    138     Ag4     Ag4      4.84084       0   0   1           -0.03398 
    139     Ag4      O5      2.09614       0   0   0           -3.39105 
    140     Ag4      O5      4.01381       1   0   0           -0.03578 
    141     Ag4      O5      4.01381       0   1   0           -0.03585 
    142     Ag4      O5      5.27518       1   1   0           -0.01600 
    143     Ag4      O5      4.01381       0   0   1           -0.03612 
    144     Ag4      O5      5.27518       1   0   1           -0.01643 
    145     Ag4      O5      5.27518       0   1   1           -0.01664 
    146     Ag4      O6      5.27518       1   0   0           -0.01654 
    147     Ag4      O6      5.27518       0   1   0           -0.01629 
    148     Ag4      O6      4.01381       1   1   0           -0.03682 
    149     Ag4      O6      5.27518       0   0   1           -0.01588 
    150     Ag4      O6      4.01381       1   0   1           -0.03685 
    151     Ag4      O6      4.01381       0   1   1           -0.03671 
    152     Ag4      O6      2.09614       1   1   1           -3.38858 
    153      O5      O5      4.84084       0   0  -1           -0.00648 
    154      O5      O5      4.84084       0  -1   0           -0.00656 
    155      O5      O5      4.84084      -1   0   0           -0.00654 
    156      O5      O5      4.84084       1   0   0           -0.00654 
    157      O5      O5      4.84084       0   1   0           -0.00656 
    158      O5      O5      4.84084       0   0   1           -0.00648 
    159      O5      O6      4.19229       0   0   0           -0.01819 
    160      O5      O6      4.19229       1   0   0           -0.03480 
    161      O5      O6      4.19229       0   1   0           -0.03485 
    162      O5      O6      4.19229       1   1   0           -0.01818 
    163      O5      O6      4.19229       0   0   1           -0.03486 
    164      O5      O6      4.19229       1   0   1           -0.01816 
    165      O5      O6      4.19229       0   1   1           -0.01819 
    166      O5      O6      4.19229       1   1   1           -0.03486 
    167      O6      O6      4.84084       0   0  -1           -0.00648 
    168      O6      O6      4.84084       0  -1   0           -0.00656 
    169      O6      O6      4.84084      -1   0   0           -0.00655 
    170      O6      O6      4.84084       1   0   0           -0.00655 
    171      O6      O6      4.84084       0   1   0           -0.00656 
    172      O6      O6      4.84084       0   0   1           -0.00648 
