  COHP#  atomMU  atomNU     distance     translation      ICOHP (at) eF   for spin  1
      1     Re1     Re1      5.36327       0  -1  -1           -0.00005 
      2     Re1     Re1      5.36327      -1   0  -1           -0.00005 
      3     Re1     Re1      3.79241       0   0  -1           -0.05508 
      4     Re1     Re1      5.36327       1   0  -1           -0.00001 
      5     Re1     Re1      5.36327       0   1  -1           -0.00001 
      6     Re1     Re1      5.36327      -1  -1   0           -0.00001 
      7     Re1     Re1      3.79241       0  -1   0           -0.05507 
      8     Re1     Re1      5.36327       1  -1   0           -0.00005 
      9     Re1     Re1      3.79241      -1   0   0           -0.05507 
     10     Re1     Re1      3.79241       1   0   0           -0.05507 
     11     Re1     Re1      5.36327      -1   1   0           -0.00005 
     12     Re1     Re1      3.79241       0   1   0           -0.05507 
     13     Re1     Re1      5.36327       1   1   0           -0.00001 
     14     Re1     Re1      5.36327       0  -1   1           -0.00001 
     15     Re1     Re1      5.36327      -1   0   1           -0.00001 
     16     Re1     Re1      3.79241       0   0   1           -0.05508 
     17     Re1     Re1      5.36327       1   0   1           -0.00005 
     18     Re1     Re1      5.36327       0   1   1           -0.00005 
     19     Re1      O2      5.68861      -1   0  -1           -0.00012 
     20     Re1      O2      4.24004       0   0  -1           -0.01115 
     21     Re1      O2      5.68861       1   0  -1           -0.00011 
     22     Re1      O2      5.68861      -1   1  -1           -0.00012 
     23     Re1      O2      4.24004       0   1  -1           -0.01117 
     24     Re1      O2      5.68861       1   1  -1           -0.00011 
     25     Re1      O2      5.68861       0  -1   0           -0.00270 
     26     Re1      O2      4.24004      -1   0   0           -0.01116 
     27     Re1      O2      1.89620       0   0   0           -5.54345 
     28     Re1      O2      4.24004       1   0   0           -0.01115 
     29     Re1      O2      4.24004      -1   1   0           -0.01115 
     30     Re1      O2      1.89620       0   1   0           -5.54345 
     31     Re1      O2      4.24004       1   1   0           -0.01116 
     32     Re1      O2      5.68861       0   2   0           -0.00270 
     33     Re1      O2      5.68861      -1   0   1           -0.00011 
     34     Re1      O2      4.24004       0   0   1           -0.01117 
     35     Re1      O2      5.68861       1   0   1           -0.00012 
     36     Re1      O2      5.68861      -1   1   1           -0.00011 
     37     Re1      O2      4.24004       0   1   1           -0.01115 
     38     Re1      O2      5.68861       1   1   1           -0.00012 
     39     Re1      O3      5.68861       0  -1  -1           -0.00012 
     40     Re1      O3      5.68861       1  -1  -1           -0.00012 
     41     Re1      O3      4.24004       0   0  -1           -0.01115 
     42     Re1      O3      4.24004       1   0  -1           -0.01117 
     43     Re1      O3      5.68861       0   1  -1           -0.00011 
     44     Re1      O3      5.68861       1   1  -1           -0.00011 
     45     Re1      O3      4.24004       0  -1   0           -0.01116 
     46     Re1      O3      4.24004       1  -1   0           -0.01115 
     47     Re1      O3      5.68861      -1   0   0           -0.00270 
     48     Re1      O3      1.89620       0   0   0           -5.54345 
     49     Re1      O3      1.89620       1   0   0           -5.54345 
     50     Re1      O3      5.68861       2   0   0           -0.00270 
     51     Re1      O3      4.24004       0   1   0           -0.01115 
     52     Re1      O3      4.24004       1   1   0           -0.01116 
     53     Re1      O3      5.68861       0  -1   1           -0.00011 
     54     Re1      O3      5.68861       1  -1   1           -0.00011 
     55     Re1      O3      4.24004       0   0   1           -0.01117 
     56     Re1      O3      4.24004       1   0   1           -0.01115 
     57     Re1      O3      5.68861       0   1   1           -0.00012 
     58     Re1      O3      5.68861       1   1   1           -0.00012 
     59     Re1      O4      5.68861       0   0  -1           -0.00270 
     60     Re1      O4      5.68861      -1  -1   0           -0.00011 
     61     Re1      O4      4.24004       0  -1   0           -0.01115 
     62     Re1      O4      5.68861       1  -1   0           -0.00012 
     63     Re1      O4      4.24004      -1   0   0           -0.01115 
     64     Re1      O4      1.89620       0   0   0           -5.54339 
     65     Re1      O4      4.24004       1   0   0           -0.01117 
     66     Re1      O4      5.68861      -1   1   0           -0.00012 
     67     Re1      O4      4.24004       0   1   0           -0.01117 
     68     Re1      O4      5.68861       1   1   0           -0.00011 
     69     Re1      O4      5.68861      -1  -1   1           -0.00011 
     70     Re1      O4      4.24004       0  -1   1           -0.01117 
     71     Re1      O4      5.68861       1  -1   1           -0.00012 
     72     Re1      O4      4.24004      -1   0   1           -0.01117 
     73     Re1      O4      1.89620       0   0   1           -5.54339 
     74     Re1      O4      4.24004       1   0   1           -0.01115 
     75     Re1      O4      5.68861      -1   1   1           -0.00012 
     76     Re1      O4      4.24004       0   1   1           -0.01115 
     77     Re1      O4      5.68861       1   1   1           -0.00011 
     78     Re1      O4      5.68861       0   0   2           -0.00270 
     79      O2      O2      5.36327       0  -1  -1           -0.00018 
     80      O2      O2      5.36327      -1   0  -1           -0.00022 
     81      O2      O2      3.79241       0   0  -1           -0.00565 
     82      O2      O2      5.36327       1   0  -1           -0.00021 
     83      O2      O2      5.36327       0   1  -1           -0.00020 
     84      O2      O2      5.36327      -1  -1   0           -0.00020 
     85      O2      O2      3.79241       0  -1   0           -0.52002 
     86      O2      O2      5.36327       1  -1   0           -0.00018 
     87      O2      O2      3.79241      -1   0   0           -0.00566 
     88      O2      O2      3.79241       1   0   0           -0.00566 
     89      O2      O2      5.36327      -1   1   0           -0.00018 
     90      O2      O2      3.79241       0   1   0           -0.52002 
     91      O2      O2      5.36327       1   1   0           -0.00020 
     92      O2      O2      5.36327       0  -1   1           -0.00020 
     93      O2      O2      5.36327      -1   0   1           -0.00021 
     94      O2      O2      3.79241       0   0   1           -0.00565 
     95      O2      O2      5.36327       1   0   1           -0.00022 
     96      O2      O2      5.36327       0   1   1           -0.00018 
     97      O2      O3      4.64473       0  -1  -1           -0.00059 
     98      O2      O3      4.64473       1  -1  -1           -0.00059 
     99      O2      O3      4.64473       0   0  -1           -0.00059 
    100      O2      O3      4.64473       1   0  -1           -0.00059 
    101      O2      O3      5.99632       0  -2   0           -0.00099 
    102      O2      O3      5.99632       1  -2   0           -0.00100 
    103      O2      O3      5.99632      -1  -1   0           -0.00099 
    104      O2      O3      2.68164       0  -1   0           -0.05253 
    105      O2      O3      2.68164       1  -1   0           -0.05266 
    106      O2      O3      5.99632       2  -1   0           -0.00100 
    107      O2      O3      5.99632      -1   0   0           -0.00100 
    108      O2      O3      2.68164       0   0   0           -0.05266 
    109      O2      O3      2.68164       1   0   0           -0.05253 
    110      O2      O3      5.99632       2   0   0           -0.00099 
    111      O2      O3      5.99632       0   1   0           -0.00100 
    112      O2      O3      5.99632       1   1   0           -0.00099 
    113      O2      O3      4.64473       0  -1   1           -0.00059 
    114      O2      O3      4.64473       1  -1   1           -0.00059 
    115      O2      O3      4.64473       0   0   1           -0.00059 
    116      O2      O3      4.64473       1   0   1           -0.00059 
    117      O2      O4      5.99632       0  -1  -1           -0.00100 
    118      O2      O4      5.99632       0   0  -1           -0.00099 
    119      O2      O4      5.99632       0  -2   0           -0.00100 
    120      O2      O4      4.64473      -1  -1   0           -0.00059 
    121      O2      O4      2.68164       0  -1   0           -0.05267 
    122      O2      O4      4.64473       1  -1   0           -0.00059 
    123      O2      O4      4.64473      -1   0   0           -0.00059 
    124      O2      O4      2.68164       0   0   0           -0.05253 
    125      O2      O4      4.64473       1   0   0           -0.00059 
    126      O2      O4      5.99632       0   1   0           -0.00099 
    127      O2      O4      5.99632       0  -2   1           -0.00099 
    128      O2      O4      4.64473      -1  -1   1           -0.00059 
    129      O2      O4      2.68164       0  -1   1           -0.05253 
    130      O2      O4      4.64473       1  -1   1           -0.00059 
    131      O2      O4      4.64473      -1   0   1           -0.00059 
    132      O2      O4      2.68164       0   0   1           -0.05267 
    133      O2      O4      4.64473       1   0   1           -0.00059 
    134      O2      O4      5.99632       0   1   1           -0.00100 
    135      O2      O4      5.99632       0  -1   2           -0.00099 
    136      O2      O4      5.99632       0   0   2           -0.00100 
    137      O3      O3      5.36327       0  -1  -1           -0.00022 
    138      O3      O3      5.36327      -1   0  -1           -0.00018 
    139      O3      O3      3.79241       0   0  -1           -0.00565 
    140      O3      O3      5.36327       1   0  -1           -0.00020 
    141      O3      O3      5.36327       0   1  -1           -0.00021 
    142      O3      O3      5.36327      -1  -1   0           -0.00020 
    143      O3      O3      3.79241       0  -1   0           -0.00566 
    144      O3      O3      5.36327       1  -1   0           -0.00018 
    145      O3      O3      3.79241      -1   0   0           -0.52002 
    146      O3      O3      3.79241       1   0   0           -0.52002 
    147      O3      O3      5.36327      -1   1   0           -0.00018 
    148      O3      O3      3.79241       0   1   0           -0.00566 
    149      O3      O3      5.36327       1   1   0           -0.00020 
    150      O3      O3      5.36327       0  -1   1           -0.00021 
    151      O3      O3      5.36327      -1   0   1           -0.00020 
    152      O3      O3      3.79241       0   0   1           -0.00565 
    153      O3      O3      5.36327       1   0   1           -0.00018 
    154      O3      O3      5.36327       0   1   1           -0.00022 
    155      O3      O4      5.99632      -1   0  -1           -0.00100 
    156      O3      O4      5.99632       0   0  -1           -0.00099 
    157      O3      O4      4.64473      -1  -1   0           -0.00059 
    158      O3      O4      4.64473       0  -1   0           -0.00059 
    159      O3      O4      5.99632      -2   0   0           -0.00100 
    160      O3      O4      2.68164      -1   0   0           -0.05267 
    161      O3      O4      2.68164       0   0   0           -0.05253 
    162      O3      O4      5.99632       1   0   0           -0.00099 
    163      O3      O4      4.64473      -1   1   0           -0.00059 
    164      O3      O4      4.64473       0   1   0           -0.00059 
    165      O3      O4      4.64473      -1  -1   1           -0.00059 
    166      O3      O4      4.64473       0  -1   1           -0.00059 
    167      O3      O4      5.99632      -2   0   1           -0.00099 
    168      O3      O4      2.68164      -1   0   1           -0.05253 
    169      O3      O4      2.68164       0   0   1           -0.05267 
    170      O3      O4      5.99632       1   0   1           -0.00100 
    171      O3      O4      4.64473      -1   1   1           -0.00059 
    172      O3      O4      4.64473       0   1   1           -0.00059 
    173      O3      O4      5.99632      -1   0   2           -0.00099 
    174      O3      O4      5.99632       0   0   2           -0.00100 
    175      O4      O4      5.36327       0  -1  -1           -0.00018 
    176      O4      O4      5.36327      -1   0  -1           -0.00018 
    177      O4      O4      3.79241       0   0  -1           -0.52002 
    178      O4      O4      5.36327       1   0  -1           -0.00020 
    179      O4      O4      5.36327       0   1  -1           -0.00020 
    180      O4      O4      5.36327      -1  -1   0           -0.00022 
    181      O4      O4      3.79241       0  -1   0           -0.00565 
    182      O4      O4      5.36327       1  -1   0           -0.00022 
    183      O4      O4      3.79241      -1   0   0           -0.00565 
    184      O4      O4      3.79241       1   0   0           -0.00565 
    185      O4      O4      5.36327      -1   1   0           -0.00022 
    186      O4      O4      3.79241       0   1   0           -0.00565 
    187      O4      O4      5.36327       1   1   0           -0.00022 
    188      O4      O4      5.36327       0  -1   1           -0.00020 
    189      O4      O4      5.36327      -1   0   1           -0.00020 
    190      O4      O4      3.79241       0   0   1           -0.52002 
    191      O4      O4      5.36327       1   0   1           -0.00018 
    192      O4      O4      5.36327       0   1   1           -0.00018 
