 Entering Gaussian System, Link 0=/usr/local/g16/g16
 Initial command:
 /usr/local/g16/l1.exe "/scratch/webmodemo/webmo-4350/627084/Gau-13488.inp" -scrdir="/scratch/webmodemo/webmo-4350/627084/"
 Entering Link 1 = /usr/local/g16/l1.exe PID=     13489.
  
 Copyright (c) 1988-2017, Gaussian, Inc.  All Rights Reserved.
  
 This is part of the Gaussian(R) 16 program.  It is based on
 the Gaussian(R) 09 system (copyright 2009, Gaussian, Inc.),
 the Gaussian(R) 03 system (copyright 2003, Gaussian, Inc.),
 the Gaussian(R) 98 system (copyright 1998, Gaussian, Inc.),
 the Gaussian(R) 94 system (copyright 1995, Gaussian, Inc.),
 the Gaussian 92(TM) system (copyright 1992, Gaussian, Inc.),
 the Gaussian 90(TM) system (copyright 1990, Gaussian, Inc.),
 the Gaussian 88(TM) system (copyright 1988, Gaussian, Inc.),
 the Gaussian 86(TM) system (copyright 1986, Carnegie Mellon
 University), and the Gaussian 82(TM) system (copyright 1983,
 Carnegie Mellon University). Gaussian is a federally registered
 trademark of Gaussian, Inc.
  
 This software contains proprietary and confidential information,
 including trade secrets, belonging to Gaussian, Inc.
  
 This software is provided under written license and may be
 used, copied, transmitted, or stored only in accord with that
 written license.
  
 The following legend is applicable only to US Government
 contracts under FAR:
  
                    RESTRICTED RIGHTS LEGEND
  
 Use, reproduction and disclosure by the US Government is
 subject to restrictions as set forth in subparagraphs (a)
 and (c) of the Commercial Computer Software - Restricted
 Rights clause in FAR 52.227-19.
  
 Gaussian, Inc.
 340 Quinnipiac St., Bldg. 40, Wallingford CT 06492
  
  
 ---------------------------------------------------------------
 Warning -- This program may not be used in any manner that
 competes with the business of Gaussian, Inc. or will provide
 assistance to any competitor of Gaussian, Inc.  The licensee
 of this program is prohibited from giving any competitor of
 Gaussian, Inc. access to this program.  By using this program,
 the user acknowledges that Gaussian, Inc. is engaged in the
 business of creating and licensing software in the field of
 computational chemistry and represents and warrants to the
 licensee that it is not a competitor of Gaussian, Inc. and that
 it will not use this program in any manner prohibited above.
 ---------------------------------------------------------------
  

 Cite this work as:
 Gaussian 16, Revision B.01,
 M. J. Frisch, G. W. Trucks, H. B. Schlegel, G. E. Scuseria, 
 M. A. Robb, J. R. Cheeseman, G. Scalmani, V. Barone, 
 G. A. Petersson, H. Nakatsuji, X. Li, M. Caricato, A. V. Marenich, 
 J. Bloino, B. G. Janesko, R. Gomperts, B. Mennucci, H. P. Hratchian, 
 J. V. Ortiz, A. F. Izmaylov, J. L. Sonnenberg, D. Williams-Young, 
 F. Ding, F. Lipparini, F. Egidi, J. Goings, B. Peng, A. Petrone, 
 T. Henderson, D. Ranasinghe, V. G. Zakrzewski, J. Gao, N. Rega, 
 G. Zheng, W. Liang, M. Hada, M. Ehara, K. Toyota, R. Fukuda, 
 J. Hasegawa, M. Ishida, T. Nakajima, Y. Honda, O. Kitao, H. Nakai, 
 T. Vreven, K. Throssell, J. A. Montgomery, Jr., J. E. Peralta, 
 F. Ogliaro, M. J. Bearpark, J. J. Heyd, E. N. Brothers, K. N. Kudin, 
 V. N. Staroverov, T. A. Keith, R. Kobayashi, J. Normand, 
 K. Raghavachari, A. P. Rendell, J. C. Burant, S. S. Iyengar, 
 J. Tomasi, M. Cossi, J. M. Millam, M. Klene, C. Adamo, R. Cammi, 
 J. W. Ochterski, R. L. Martin, K. Morokuma, O. Farkas, 
 J. B. Foresman, and D. J. Fox, Gaussian, Inc., Wallingford CT, 2016.
 
 ******************************************
 Gaussian 16:  ES64L-G16RevB.01 20-Dec-2017
                 7-Apr-2020 
 ******************************************
 --------------------------------------------------
 #N HF/6-31G(d) OPT(AddRedundant) Geom=Connectivity
 --------------------------------------------------
 1/18=120,19=15,38=1,57=2/1,3;
 2/9=110,12=2,17=6,18=5,40=1/2;
 3/5=1,6=6,7=1,11=9,25=1,30=1,71=1/1,2,3;
 4//1;
 5/5=2,38=5/2;
 6/7=2,8=2,9=2,10=2,28=1/1;
 7//1,2,3,16;
 1/18=20,19=15/3(2);
 2/9=110/2;
 99//99;
 2/9=110/2;
 3/5=1,6=6,7=1,11=9,25=1,30=1,71=1/1,2,3;
 4/5=5,16=3,69=1/1;
 5/5=2,38=5/2;
 7//1,2,3,16;
 1/18=20,19=15/3(-5);
 2/9=110/2;
 6/7=2,8=2,9=2,10=2,19=2,28=1/1;
 99/9=1/99;
 ---
 H2O
 ---
 Symbolic Z-matrix:
 Charge =  0 Multiplicity = 1
 O
 H                    1    B1
 H                    1    B2       2    A1
       Variables:
  B1                    1.05                     
  B2                    1.05                     
  A1                  100.                       
 
 The following ModRedundant input section has been read:
 A       2       1       3 S  20 1.0000                                        
 

 GradGradGradGradGradGradGradGradGradGradGradGradGradGradGradGradGradGrad
 Berny optimization.
 Initialization pass.
                           ----------------------------
                           !    Initial Parameters    !
                           ! (Angstroms and Degrees)  !
 --------------------------                            --------------------------
 ! Name  Definition              Value          Derivative Info.                !
 --------------------------------------------------------------------------------
 ! R1    R(1,2)                  1.05           estimate D2E/DX2                !
 ! R2    R(1,3)                  1.05           estimate D2E/DX2                !
 ! A1    A(2,1,3)               100.0           Scan                            !
 --------------------------------------------------------------------------------
 Trust Radius=3.00D-01 FncErr=1.00D-07 GrdErr=1.00D-07 EigMax=2.50D+02 EigMin=1.00D-04
 Number of optimizations in scan=  21
 Number of steps in this run=     20 maximum allowed number of steps=    100.
 GradGradGradGradGradGradGradGradGradGradGradGradGradGradGradGradGradGrad

                          Input orientation:                          
 ---------------------------------------------------------------------
 Center     Atomic      Atomic             Coordinates (Angstroms)
 Number     Number       Type             X           Y           Z
 ---------------------------------------------------------------------
      1          8           0        0.000000    0.000000    0.000000
      2          1           0        0.000000    0.000000    1.050000
      3          1           0        1.034048    0.000000   -0.182331
 ---------------------------------------------------------------------
                    Distance matrix (angstroms):
                    1          2          3
     1  O    0.000000
     2  H    1.050000   0.000000
     3  H    1.050000   1.608693   0.000000
 Stoichiometry    H2O
 Framework group  C2V[C2(O),SGV(H2)]
 Deg. of freedom     2
 Full point group                 C2V     NOp   4
 Largest Abelian subgroup         C2V     NOp   4
 Largest concise Abelian subgroup C2      NOp   2
                         Standard orientation:                         
 ---------------------------------------------------------------------
 Center     Atomic      Atomic             Coordinates (Angstroms)
 Number     Number       Type             X           Y           Z
 ---------------------------------------------------------------------
      1          8           0        0.000000   -0.000000    0.134985
      2          1           0        0.000000    0.804347   -0.539942
      3          1           0       -0.000000   -0.804347   -0.539942
 ---------------------------------------------------------------------
 Rotational constants (GHZ):         619.7747411         387.5391029         238.4430122
 Standard basis: 6-31G(d) (6D, 7F)
 There are    10 symmetry adapted cartesian basis functions of A1  symmetry.
 There are     1 symmetry adapted cartesian basis functions of A2  symmetry.
 There are     3 symmetry adapted cartesian basis functions of B1  symmetry.
 There are     5 symmetry adapted cartesian basis functions of B2  symmetry.
 There are    10 symmetry adapted basis functions of A1  symmetry.
 There are     1 symmetry adapted basis functions of A2  symmetry.
 There are     3 symmetry adapted basis functions of B1  symmetry.
 There are     5 symmetry adapted basis functions of B2  symmetry.
    19 basis functions,    36 primitive gaussians,    19 cartesian basis functions
     5 alpha electrons        5 beta electrons
       nuclear repulsion energy         8.3926012085 Hartrees.
 NAtoms=    3 NActive=    3 NUniq=    2 SFac= 2.25D+00 NAtFMM=   60 NAOKFM=F Big=F
 Integral buffers will be    131072 words long.
 Raffenetti 1 integral format.
 Two-electron integral symmetry is turned on.
 One-electron integrals computed using PRISM.
 NBasis=    19 RedAO= T EigKep=  2.58D-02  NBF=    10     1     3     5
 NBsUse=    19 1.00D-06 EigRej= -1.00D+00 NBFU=    10     1     3     5
 ExpMin= 1.61D-01 ExpMax= 5.48D+03 ExpMxC= 8.25D+02 IAcc=3 IRadAn=         5 AccDes= 0.00D+00
 Harris functional with IExCor=  205 and IRadAn=       5 diagonalized for initial guess.
 HarFok:  IExCor=  205 AccDes= 0.00D+00 IRadAn=         5 IDoV= 1 UseB2=F ITyADJ=14
 ICtDFT=  3500011 ScaDFX=  1.000000  1.000000  1.000000  1.000000
 FoFCou: FMM=F IPFlag=           0 FMFlag=      100000 FMFlg1=           0
         NFxFlg=           0 DoJE=T BraDBF=F KetDBF=T FulRan=T
         wScrn=  0.000000 ICntrl=       500 IOpCl=  0 I1Cent=   200000004 NGrid=           0
         NMat0=    1 NMatS0=      1 NMatT0=    0 NMatD0=    1 NMtDS0=    0 NMtDT0=    0
 Petite list used in FoFCou.
 Initial guess orbital symmetries:
       Occupied  (A1) (A1) (B2) (A1) (B1)
       Virtual   (A1) (B2) (B2) (A1) (B1) (A1) (B2) (A1) (A1) (A2)
                 (B1) (A1) (B2) (A1)
 The electronic state of the initial guess is 1-A1.
 Keep R1 ints in memory in symmetry-blocked form, NReq=845746.
 Requested convergence on RMS density matrix=1.00D-08 within 128 cycles.
 Requested convergence on MAX density matrix=1.00D-06.
 Requested convergence on             energy=1.00D-06.
 No special actions if energy rises.
 SCF Done:  E(RHF) =  -75.9926467975     A.U. after   10 cycles
            NFock= 10  Conv=0.52D-08     -V/T= 2.0064

 **********************************************************************

            Population analysis using the SCF Density.

 **********************************************************************

 Orbital symmetries:
       Occupied  (A1) (A1) (B2) (A1) (B1)
       Virtual   (A1) (B2) (B2) (A1) (A1) (B1) (B2) (A1) (A1) (A2)
                 (B1) (A1) (B2) (A1)
 The electronic state is 1-A1.
 Alpha  occ. eigenvalues --  -20.58090  -1.30287  -0.65227  -0.56299  -0.49500
 Alpha virt. eigenvalues --    0.18891   0.27508   0.96857   1.06997   1.13851
 Alpha virt. eigenvalues --    1.16611   1.35432   1.45104   2.03108   2.05720
 Alpha virt. eigenvalues --    2.07777   2.51207   2.77957   3.91666
          Condensed to atoms (all electrons):
               1          2          3
     1  O    8.344084   0.245327   0.245327
     2  H    0.245327   0.355759  -0.018454
     3  H    0.245327  -0.018454   0.355759
 Mulliken charges:
               1
     1  O   -0.834737
     2  H    0.417369
     3  H    0.417369
 Sum of Mulliken charges =  -0.00000
 Mulliken charges with hydrogens summed into heavy atoms:
               1
     1  O   -0.000000
 Electronic spatial extent (au):  <R**2>=             20.2087
 Charge=             -0.0000 electrons
 Dipole moment (field-independent basis, Debye):
    X=             -0.0000    Y=             -0.0000    Z=             -2.3678  Tot=              2.3678
 Quadrupole moment (field-independent basis, Debye-Ang):
   XX=             -7.4141   YY=             -4.1904   ZZ=             -5.8610
   XY=              0.0000   XZ=              0.0000   YZ=             -0.0000
 Traceless Quadrupole moment (field-independent basis, Debye-Ang):
   XX=             -1.5923   YY=              1.6314   ZZ=             -0.0391
   XY=              0.0000   XZ=              0.0000   YZ=             -0.0000
 Octapole moment (field-independent basis, Debye-Ang**2):
  XXX=              0.0000  YYY=             -0.0000  ZZZ=             -1.4868  XYY=             -0.0000
  XXY=              0.0000  XXZ=             -0.3316  XZZ=             -0.0000  YZZ=              0.0000
  YYZ=             -1.6328  XYZ=             -0.0000
 Hexadecapole moment (field-independent basis, Debye-Ang**3):
 XXXX=             -5.4216 YYYY=             -6.3720 ZZZZ=             -6.7644 XXXY=             -0.0000
 XXXZ=             -0.0000 YYYX=              0.0000 YYYZ=              0.0000 ZZZX=             -0.0000
 ZZZY=              0.0000 XXYY=             -2.2898 XXZZ=             -2.1165 YYZZ=             -1.6520
 XXYZ=              0.0000 YYXZ=              0.0000 ZZXY=              0.0000
 N-N= 8.392601208535D+00 E-N=-1.970955529014D+02  KE= 7.551311275115D+01
 Symmetry A1   KE= 6.759360816483D+01
 Symmetry A2   KE= 1.090486515693D-34
 Symmetry B1   KE= 4.587837092809D+00
 Symmetry B2   KE= 3.331667493514D+00
 Calling FoFJK, ICntrl=      2127 FMM=F ISym2X=1 I1Cent= 0 IOpClX= 0 NMat=1 NMatS=1 NMatT=0.
 ***** Axes restored to original set *****
 -------------------------------------------------------------------
 Center     Atomic                   Forces (Hartrees/Bohr)
 Number     Number              X              Y              Z
 -------------------------------------------------------------------
      1        8           0.084847370    0.000000000    0.071195397
      2        1          -0.004026369   -0.000000000   -0.081357838
      3        1          -0.080821001   -0.000000000    0.010162441
 -------------------------------------------------------------------
 Cartesian Forces:  Max     0.084847370 RMS     0.053269211

 GradGradGradGradGradGradGradGradGradGradGradGradGradGradGradGradGradGrad
 Berny optimization.
 FormGI is forming the generalized inverse of G from B-inverse, IUseBI=4.
 Internal  Forces:  Max     0.081357838 RMS     0.066588343
 Search for a local minimum.
 Step number   1 out of a maximum of   20 on scan point     1 out of    21
 All quantities printed in internal units (Hartrees-Bohrs-Radians)
 Mixed Optimization -- RFO/linear search
 Second derivative matrix not updated -- first step.
 The second derivative matrix:
                          R1        R2        A1
           R1           0.39877
           R2           0.00000   0.39877
           A1           0.00000   0.00000   0.16000
 ITU=  0
     Eigenvalues ---    0.39877   0.398771000.00000
 RFO step:  Lambda=-3.08163656D-02 EMin= 3.98766852D-01
 Linear search not attempted -- first point.
 Iteration  1 RMS(Cart)=  0.13162563 RMS(Int)=  0.00000000
 Iteration  2 RMS(Cart)=  0.00000000 RMS(Int)=  0.00000000
 Iteration  1 RMS(Cart)=  0.00000000 RMS(Int)=  0.00000000
 ClnCor:  largest displacement from symmetrization is 1.56D-15 for atom     3.
 Variable       Old X    -DE/DX   Delta X   Delta X   Delta X     New X
                                 (Linear)    (Quad)   (Total)
    R1        1.98421  -0.08136   0.00000  -0.18939  -0.18939   1.79482
    R2        1.98421  -0.08136   0.00000  -0.18939  -0.18939   1.79482
    A1        1.74533   0.00799   0.00000   0.00000   0.00000   1.74533
         Item               Value     Threshold  Converged?
 Maximum Force            0.081358     0.000450     NO 
 RMS     Force            0.081358     0.000300     NO 
 Maximum Displacement     0.137221     0.001800     NO 
 RMS     Displacement     0.131626     0.001200     NO 
 Predicted change in Energy=-1.651350D-02
 GradGradGradGradGradGradGradGradGradGradGradGradGradGradGradGradGradGrad

                          Input orientation:                          
 ---------------------------------------------------------------------
 Center     Atomic      Atomic             Coordinates (Angstroms)
 Number     Number       Type             X           Y           Z
 ---------------------------------------------------------------------
      1          8           0        0.032899   -0.000000    0.027606
      2          1           0        0.032899   -0.000000    0.977386
      3          1           0        0.968250    0.000000   -0.137322
 ---------------------------------------------------------------------
                    Distance matrix (angstroms):
                    1          2          3
     1  O    0.000000
     2  H    0.949780   0.000000
     3  H    0.949780   1.455148   0.000000
 Stoichiometry    H2O
 Framework group  C2V[C2(O),SGV(H2)]
 Deg. of freedom     2
 Full point group                 C2V     NOp   4
 Largest Abelian subgroup         C2V     NOp   4
 Largest concise Abelian subgroup C2      NOp   2
                         Standard orientation:                         
 ---------------------------------------------------------------------
 Center     Atomic      Atomic             Coordinates (Angstroms)
 Number     Number       Type             X           Y           Z
 ---------------------------------------------------------------------
      1          8           0       -0.000000    0.000000    0.122101
      2          1           0        0.000000    0.727574   -0.488406
      3          1           0       -0.000000   -0.727574   -0.488406
 ---------------------------------------------------------------------
 Rotational constants (GHZ):         757.4713005         473.6394189         291.4183598
 Standard basis: 6-31G(d) (6D, 7F)
 There are    10 symmetry adapted cartesian basis functions of A1  symmetry.
 There are     1 symmetry adapted cartesian basis functions of A2  symmetry.
 There are     3 symmetry adapted cartesian basis functions of B1  symmetry.
 There are     5 symmetry adapted cartesian basis functions of B2  symmetry.
 There are    10 symmetry adapted basis functions of A1  symmetry.
 There are     1 symmetry adapted basis functions of A2  symmetry.
 There are     3 symmetry adapted basis functions of B1  symmetry.
 There are     5 symmetry adapted basis functions of B2  symmetry.
    19 basis functions,    36 primitive gaussians,    19 cartesian basis functions
     5 alpha electrons        5 beta electrons
       nuclear repulsion energy         9.2781789003 Hartrees.
 NAtoms=    3 NActive=    3 NUniq=    2 SFac= 2.25D+00 NAtFMM=   60 NAOKFM=F Big=F
 Integral buffers will be    131072 words long.
 Raffenetti 1 integral format.
 Two-electron integral symmetry is turned on.
 One-electron integrals computed using PRISM.
 NBasis=    19 RedAO= T EigKep=  2.20D-02  NBF=    10     1     3     5
 NBsUse=    19 1.00D-06 EigRej= -1.00D+00 NBFU=    10     1     3     5
 Initial guess from the checkpoint file:  "/scratch/webmodemo/webmo-4350/627084/Gau-13489.chk"
 B after Tr=     0.000000    0.000000   -0.000000
         Rot=    1.000000   -0.000000    0.000000    0.000000 Ang=   0.00 deg.
 Initial guess orbital symmetries:
       Occupied  (A1) (A1) (B2) (A1) (B1)
       Virtual   (A1) (B2) (B2) (A1) (A1) (B1) (B2) (A1) (A1) (A2)
                 (B1) (A1) (B2) (A1)
 ExpMin= 1.61D-01 ExpMax= 5.48D+03 ExpMxC= 8.25D+02 IAcc=3 IRadAn=         5 AccDes= 0.00D+00
 Harris functional with IExCor=  205 and IRadAn=       5 diagonalized for initial guess.
 HarFok:  IExCor=  205 AccDes= 0.00D+00 IRadAn=         5 IDoV= 1 UseB2=F ITyADJ=14
 ICtDFT=  3500011 ScaDFX=  1.000000  1.000000  1.000000  1.000000
 FoFCou: FMM=F IPFlag=           0 FMFlag=      100000 FMFlg1=           0
         NFxFlg=           0 DoJE=T BraDBF=F KetDBF=T FulRan=T
         wScrn=  0.000000 ICntrl=       500 IOpCl=  0 I1Cent=   200000004 NGrid=           0
         NMat0=    1 NMatS0=      1 NMatT0=    0 NMatD0=    1 NMtDS0=    0 NMtDT0=    0
 Petite list used in FoFCou.
 Keep R1 ints in memory in symmetry-blocked form, NReq=845746.
 Requested convergence on RMS density matrix=1.00D-08 within 128 cycles.
 Requested convergence on MAX density matrix=1.00D-06.
 Requested convergence on             energy=1.00D-06.
 No special actions if energy rises.
 SCF Done:  E(RHF) =  -76.0098514887     A.U. after   10 cycles
            NFock= 10  Conv=0.78D-08     -V/T= 2.0020
 Calling FoFJK, ICntrl=      2127 FMM=F ISym2X=1 I1Cent= 0 IOpClX= 0 NMat=1 NMatS=1 NMatT=0.
 ***** Axes restored to original set *****
 -------------------------------------------------------------------
 Center     Atomic                   Forces (Hartrees/Bohr)
 Number     Number              X              Y              Z
 -------------------------------------------------------------------
      1        8           0.012289065    0.000000000    0.010311750
      2        1          -0.010535014   -0.000000000    0.000076497
      3        1          -0.001754051   -0.000000000   -0.010388247
 -------------------------------------------------------------------
 Cartesian Forces:  Max     0.012289065 RMS     0.007297930

 GradGradGradGradGradGradGradGradGradGradGradGradGradGradGradGradGradGrad
 Berny optimization.
 Using GEDIIS/GDIIS optimizer.
 FormGI is forming the generalized inverse of G from B-inverse, IUseBI=4.
 Internal  Forces:  Max     0.018908502 RMS     0.010917007
 Search for a local minimum.
 Step number   2 out of a maximum of   20 on scan point     1 out of    21
 All quantities printed in internal units (Hartrees-Bohrs-Radians)
 Mixed Optimization -- En-DIIS/RFO-DIIS
 Update second derivatives using D2CorX and points    1    2
 DE= -1.72D-02 DEPred=-1.65D-02 R= 1.04D+00
 TightC=F SS=  1.41D+00  RLast= 2.68D-01 DXNew= 5.0454D-01 8.0350D-01
 Trust test= 1.04D+00 RLast= 2.68D-01 DXMaxT set to 5.05D-01
 The second derivative matrix:
                          R1        R2        A1
           R1           0.41438
           R2           0.01561   0.41438
           A1           0.02883   0.02883   0.16387
 ITU=  1  0
 Use linear search instead of GDIIS.
     Eigenvalues ---    0.39877   0.429991000.00000
 RFO step:  Lambda= 0.00000000D+00 EMin= 3.98766852D-01
 Quartic linear search produced a step of -0.00068.
 Iteration  1 RMS(Cart)=  0.00009006 RMS(Int)=  0.00000000
 Iteration  2 RMS(Cart)=  0.00000000 RMS(Int)=  0.00000000
 Iteration  1 RMS(Cart)=  0.00000000 RMS(Int)=  0.00000000
 ClnCor:  largest displacement from symmetrization is 5.59D-15 for atom     3.
 Variable       Old X    -DE/DX   Delta X   Delta X   Delta X     New X
                                 (Linear)    (Quad)   (Total)
    R1        1.79482   0.00008   0.00013   0.00000   0.00013   1.79495
    R2        1.79482   0.00008   0.00013  -0.00000   0.00013   1.79495
    A1        1.74533   0.01891   0.00000   0.00000   0.00000   1.74533
         Item               Value     Threshold  Converged?
 Maximum Force            0.000076     0.000450     YES
 RMS     Force            0.000076     0.000300     YES
 Maximum Displacement     0.000094     0.001800     YES
 RMS     Displacement     0.000090     0.001200     YES
 Predicted change in Energy=-1.260525D-08
 Optimization completed.
    -- Stationary point found.
                           ----------------------------
                           !   Optimized Parameters   !
                           ! (Angstroms and Degrees)  !
 --------------------------                            --------------------------
 ! Name  Definition              Value          Derivative Info.                !
 --------------------------------------------------------------------------------
 ! R1    R(1,2)                  0.9498         -DE/DX =    0.0001              !
 ! R2    R(1,3)                  0.9498         -DE/DX =    0.0001              !
 ! A1    A(2,1,3)               100.0           -DE/DX =    0.0189              !
 --------------------------------------------------------------------------------
 Iteration  1 RMS(Cart)=  0.00997894 RMS(Int)=  0.00005580
 Iteration  2 RMS(Cart)=  0.00004754 RMS(Int)=  0.00000000
 Iteration  3 RMS(Cart)=  0.00000000 RMS(Int)=  0.00000000
 Iteration  1 RMS(Cart)=  0.00000000 RMS(Int)=  0.00000000
 GradGradGradGradGradGradGradGradGradGradGradGradGradGradGradGradGradGrad

                          Input orientation:                          
 ---------------------------------------------------------------------
 Center     Atomic      Atomic             Coordinates (Angstroms)
 Number     Number       Type             X           Y           Z
 ---------------------------------------------------------------------
      1          8           0        0.036131   -0.000000    0.030318
      2          1           0        0.027842   -0.000000    0.980130
      3          1           0        0.970075    0.000000   -0.142779
 ---------------------------------------------------------------------
                    Distance matrix (angstroms):
                    1          2          3
     1  O    0.000000
     2  H    0.949849   0.000000
     3  H    0.949849   1.465853   0.000000
 Stoichiometry    H2O
 Framework group  C2V[C2(O),SGV(H2)]
 Deg. of freedom     2
 Full point group                 C2V     NOp   4
 Largest Abelian subgroup         C2V     NOp   4
 Largest concise Abelian subgroup C2      NOp   2
                         Standard orientation:                         
 ---------------------------------------------------------------------
 Center     Atomic      Atomic             Coordinates (Angstroms)
 Number     Number       Type             X           Y           Z
 ---------------------------------------------------------------------
      1          8           0       -0.000000   -0.000000    0.120836
      2          1           0       -0.000000    0.732927   -0.483343
      3          1           0       -0.000000   -0.732927   -0.483343
 ---------------------------------------------------------------------
 Rotational constants (GHZ):         773.4235941         466.7463740         291.0832123
 Standard basis: 6-31G(d) (6D, 7F)
 There are    10 symmetry adapted cartesian basis functions of A1  symmetry.
 There are     1 symmetry adapted cartesian basis functions of A2  symmetry.
 There are     3 symmetry adapted cartesian basis functions of B1  symmetry.
 There are     5 symmetry adapted cartesian basis functions of B2  symmetry.
 There are    10 symmetry adapted basis functions of A1  symmetry.
 There are     1 symmetry adapted basis functions of A2  symmetry.
 There are     3 symmetry adapted basis functions of B1  symmetry.
 There are     5 symmetry adapted basis functions of B2  symmetry.
    19 basis functions,    36 primitive gaussians,    19 cartesian basis functions
     5 alpha electrons        5 beta electrons
       nuclear repulsion energy         9.2748794002 Hartrees.
 NAtoms=    3 NActive=    3 NUniq=    2 SFac= 2.25D+00 NAtFMM=   60 NAOKFM=F Big=F
 Integral buffers will be    131072 words long.
 Raffenetti 1 integral format.
 Two-electron integral symmetry is turned on.
 One-electron integrals computed using PRISM.
 NBasis=    19 RedAO= T EigKep=  2.20D-02  NBF=    10     1     3     5
 NBsUse=    19 1.00D-06 EigRej= -1.00D+00 NBFU=    10     1     3     5
 Initial guess from the checkpoint file:  "/scratch/webmodemo/webmo-4350/627084/Gau-13489.chk"
 B after Tr=    -0.000000   -0.000000    0.000000
         Rot=    1.000000    0.000000   -0.000000   -0.000000 Ang=   0.00 deg.
 Initial guess orbital symmetries:
       Occupied  (A1) (A1) (B2) (A1) (B1)
       Virtual   (A1) (B2) (B2) (A1) (B1) (A1) (B2) (A1) (A1) (A2)
                 (B1) (A1) (B2) (A1)
 ExpMin= 1.61D-01 ExpMax= 5.48D+03 ExpMxC= 8.25D+02 IAcc=3 IRadAn=         5 AccDes= 0.00D+00
 Harris functional with IExCor=  205 and IRadAn=       5 diagonalized for initial guess.
 HarFok:  IExCor=  205 AccDes= 0.00D+00 IRadAn=         5 IDoV= 1 UseB2=F ITyADJ=14
 ICtDFT=  3500011 ScaDFX=  1.000000  1.000000  1.000000  1.000000
 FoFCou: FMM=F IPFlag=           0 FMFlag=      100000 FMFlg1=           0
         NFxFlg=           0 DoJE=T BraDBF=F KetDBF=T FulRan=T
         wScrn=  0.000000 ICntrl=       500 IOpCl=  0 I1Cent=   200000004 NGrid=           0
         NMat0=    1 NMatS0=      1 NMatT0=    0 NMatD0=    1 NMtDS0=    0 NMtDT0=    0
 Petite list used in FoFCou.
 Keep R1 ints in memory in symmetry-blocked form, NReq=845746.
 Requested convergence on RMS density matrix=1.00D-08 within 128 cycles.
 Requested convergence on MAX density matrix=1.00D-06.
 Requested convergence on             energy=1.00D-06.
 No special actions if energy rises.
 SCF Done:  E(RHF) =  -76.0101498489     A.U. after    8 cycles
            NFock=  8  Conv=0.43D-08     -V/T= 2.0020
 Calling FoFJK, ICntrl=      2127 FMM=F ISym2X=1 I1Cent= 0 IOpClX= 0 NMat=1 NMatS=1 NMatT=0.
 ***** Axes restored to original set *****
 -------------------------------------------------------------------
 Center     Atomic                   Forces (Hartrees/Bohr)
 Number     Number              X              Y              Z
 -------------------------------------------------------------------
      1        8           0.010608222    0.000000000    0.008901355
      2        1          -0.008516873   -0.000000000   -0.000621857
      3        1          -0.002091349   -0.000000000   -0.008279498
 -------------------------------------------------------------------
 Cartesian Forces:  Max     0.010608222 RMS     0.006124778

 GradGradGradGradGradGradGradGradGradGradGradGradGradGradGradGradGradGrad
 Berny optimization.
 FormGI is forming the generalized inverse of G from B-inverse, IUseBI=4.
 Internal  Forces:  Max     0.015296555 RMS     0.008842777
 Search for a local minimum.
 Step number   1 out of a maximum of   20 on scan point     2 out of    21
 All quantities printed in internal units (Hartrees-Bohrs-Radians)
 Mixed Optimization -- RFO/linear search
 Second derivative matrix not updated -- first step.
 The second derivative matrix:
                          R1        R2        A1
           R1           0.41438
           R2           0.01561   0.41438
           A1           0.02883   0.02883   0.16387
 ITU=  0
     Eigenvalues ---    0.39877   0.429991000.00000
 RFO step:  Lambda=-1.39431194D-06 EMin= 3.98766852D-01
 Linear search not attempted -- first point.
 Iteration  1 RMS(Cart)=  0.00088845 RMS(Int)=  0.00000000
 Iteration  2 RMS(Cart)=  0.00000000 RMS(Int)=  0.00000000
 Iteration  1 RMS(Cart)=  0.00000000 RMS(Int)=  0.00000000
 ClnCor:  largest displacement from symmetrization is 8.12D-15 for atom     3.
 Variable       Old X    -DE/DX   Delta X   Delta X   Delta X     New X
                                 (Linear)    (Quad)   (Total)
    R1        1.79495  -0.00055   0.00000  -0.00127  -0.00127   1.79368
    R2        1.79495  -0.00055   0.00000  -0.00127  -0.00127   1.79368
    A1        1.76278   0.01530   0.00000   0.00000   0.00000   1.76278
         Item               Value     Threshold  Converged?
 Maximum Force            0.000548     0.000450     NO 
 RMS     Force            0.000548     0.000300     NO 
 Maximum Displacement     0.000926     0.001800     YES
 RMS     Displacement     0.000888     0.001200     YES
 Predicted change in Energy=-6.971560D-07
 GradGradGradGradGradGradGradGradGradGradGradGradGradGradGradGradGradGrad

                          Input orientation:                          
 ---------------------------------------------------------------------
 Center     Atomic      Atomic             Coordinates (Angstroms)
 Number     Number       Type             X           Y           Z
 ---------------------------------------------------------------------
      1          8           0        0.036350   -0.000000    0.030501
      2          1           0        0.028067   -0.000000    0.979640
      3          1           0        0.969631    0.000000   -0.142472
 ---------------------------------------------------------------------
                    Distance matrix (angstroms):
                    1          2          3
     1  O    0.000000
     2  H    0.949175   0.000000
     3  H    0.949175   1.464814   0.000000
 Stoichiometry    H2O
 Framework group  C2V[C2(O),SGV(H2)]
 Deg. of freedom     2
 Full point group                 C2V     NOp   4
 Largest Abelian subgroup         C2V     NOp   4
 Largest concise Abelian subgroup C2      NOp   2
                         Standard orientation:                         
 ---------------------------------------------------------------------
 Center     Atomic      Atomic             Coordinates (Angstroms)
 Number     Number       Type             X           Y           Z
 ---------------------------------------------------------------------
      1          8           0       -0.000000    0.000000    0.120750
      2          1           0        0.000000    0.732407   -0.483000
      3          1           0       -0.000000   -0.732407   -0.483000
 ---------------------------------------------------------------------
 Rotational constants (GHZ):         774.5220742         467.4092858         291.4966327
 Standard basis: 6-31G(d) (6D, 7F)
 There are    10 symmetry adapted cartesian basis functions of A1  symmetry.
 There are     1 symmetry adapted cartesian basis functions of A2  symmetry.
 There are     3 symmetry adapted cartesian basis functions of B1  symmetry.
 There are     5 symmetry adapted cartesian basis functions of B2  symmetry.
 There are    10 symmetry adapted basis functions of A1  symmetry.
 There are     1 symmetry adapted basis functions of A2  symmetry.
 There are     3 symmetry adapted basis functions of B1  symmetry.
 There are     5 symmetry adapted basis functions of B2  symmetry.
    19 basis functions,    36 primitive gaussians,    19 cartesian basis functions
     5 alpha electrons        5 beta electrons
       nuclear repulsion energy         9.2814635383 Hartrees.
 NAtoms=    3 NActive=    3 NUniq=    2 SFac= 2.25D+00 NAtFMM=   60 NAOKFM=F Big=F
 Integral buffers will be    131072 words long.
 Raffenetti 1 integral format.
 Two-electron integral symmetry is turned on.
 One-electron integrals computed using PRISM.
 NBasis=    19 RedAO= T EigKep=  2.20D-02  NBF=    10     1     3     5
 NBsUse=    19 1.00D-06 EigRej= -1.00D+00 NBFU=    10     1     3     5
 Initial guess from the checkpoint file:  "/scratch/webmodemo/webmo-4350/627084/Gau-13489.chk"
 B after Tr=     0.000000    0.000000    0.000000
         Rot=    1.000000    0.000000    0.000000    0.000000 Ang=   0.00 deg.
 Initial guess orbital symmetries:
       Occupied  (A1) (A1) (B2) (A1) (B1)
       Virtual   (A1) (B2) (B2) (A1) (B1) (A1) (B2) (A1) (A1) (A2)
                 (B1) (A1) (B2) (A1)
 Keep R1 ints in memory in symmetry-blocked form, NReq=845746.
 Requested convergence on RMS density matrix=1.00D-08 within 128 cycles.
 Requested convergence on MAX density matrix=1.00D-06.
 Requested convergence on             energy=1.00D-06.
 No special actions if energy rises.
 SCF Done:  E(RHF) =  -76.0101502727     A.U. after    7 cycles
            NFock=  7  Conv=0.59D-08     -V/T= 2.0020
 Calling FoFJK, ICntrl=      2127 FMM=F ISym2X=1 I1Cent= 0 IOpClX= 0 NMat=1 NMatS=1 NMatT=0.
 ***** Axes restored to original set *****
 -------------------------------------------------------------------
 Center     Atomic                   Forces (Hartrees/Bohr)
 Number     Number              X              Y              Z
 -------------------------------------------------------------------
      1        8           0.009924041    0.000000000    0.008327259
      2        1          -0.008573580   -0.000000000    0.000140460
      3        1          -0.001350461   -0.000000000   -0.008467718
 -------------------------------------------------------------------
 Cartesian Forces:  Max     0.009924041 RMS     0.005914970

 GradGradGradGradGradGradGradGradGradGradGradGradGradGradGradGradGradGrad
 Berny optimization.
 Using GEDIIS/GDIIS optimizer.
 FormGI is forming the generalized inverse of G from B-inverse, IUseBI=4.
 Internal  Forces:  Max     0.015375482 RMS     0.008878779
 Search for a local minimum.
 Step number   2 out of a maximum of   20 on scan point     2 out of    21
 All quantities printed in internal units (Hartrees-Bohrs-Radians)
 Mixed Optimization -- En-DIIS/RFO-DIIS
 Update second derivatives using D2CorX and points    1    2
 DE= -4.24D-07 DEPred=-6.97D-07 R= 6.08D-01
 Trust test= 6.08D-01 RLast= 1.80D-03 DXMaxT set to 5.05D-01
 The second derivative matrix:
                          R1        R2        A1
           R1           0.49891
           R2           0.10014   0.49891
           A1           0.03099   0.03099   0.16321
 ITU=  0  0
 Use linear search instead of GDIIS.
     Eigenvalues ---    0.39877   0.599051000.00000
 RFO step:  Lambda= 0.00000000D+00 EMin= 3.98766852D-01
 Quartic linear search produced a step of -0.28175.
 Iteration  1 RMS(Cart)=  0.00025032 RMS(Int)=  0.00000000
 Iteration  2 RMS(Cart)=  0.00000000 RMS(Int)=  0.00000000
 Iteration  1 RMS(Cart)=  0.00000000 RMS(Int)=  0.00000000
 ClnCor:  largest displacement from symmetrization is 2.49D-15 for atom     3.
 Variable       Old X    -DE/DX   Delta X   Delta X   Delta X     New X
                                 (Linear)    (Quad)   (Total)
    R1        1.79368   0.00022   0.00036  -0.00000   0.00036   1.79404
    R2        1.79368   0.00022   0.00036   0.00000   0.00036   1.79404
    A1        1.76278   0.01538  -0.00000   0.00000  -0.00000   1.76278
         Item               Value     Threshold  Converged?
 Maximum Force            0.000215     0.000450     YES
 RMS     Force            0.000215     0.000300     YES
 Maximum Displacement     0.000261     0.001800     YES
 RMS     Displacement     0.000250     0.001200     YES
 Predicted change in Energy=-7.735855D-08
 Optimization completed.
    -- Stationary point found.
                           ----------------------------
                           !   Optimized Parameters   !
                           ! (Angstroms and Degrees)  !
 --------------------------                            --------------------------
 ! Name  Definition              Value          Derivative Info.                !
 --------------------------------------------------------------------------------
 ! R1    R(1,2)                  0.9492         -DE/DX =    0.0002              !
 ! R2    R(1,3)                  0.9492         -DE/DX =    0.0002              !
 ! A1    A(2,1,3)              101.0            -DE/DX =    0.0154              !
 --------------------------------------------------------------------------------
 Iteration  1 RMS(Cart)=  0.00992689 RMS(Int)=  0.00005578
 Iteration  2 RMS(Cart)=  0.00004770 RMS(Int)=  0.00000000
 Iteration  3 RMS(Cart)=  0.00000000 RMS(Int)=  0.00000000
 Iteration  1 RMS(Cart)=  0.00000000 RMS(Int)=  0.00000000
 GradGradGradGradGradGradGradGradGradGradGradGradGradGradGradGradGradGrad

                          Input orientation:                          
 ---------------------------------------------------------------------
 Center     Atomic      Atomic             Coordinates (Angstroms)
 Number     Number       Type             X           Y           Z
 ---------------------------------------------------------------------
      1          8           0        0.039565   -0.000000    0.033199
      2          1           0        0.022996   -0.000000    0.982419
      3          1           0        0.971487    0.000000   -0.147949
 ---------------------------------------------------------------------
                    Distance matrix (angstroms):
                    1          2          3
     1  O    0.000000
     2  H    0.949365   0.000000
     3  H    0.949365   1.475590   0.000000
 Stoichiometry    H2O
 Framework group  C2V[C2(O),SGV(H2)]
 Deg. of freedom     2
 Full point group                 C2V     NOp   4
 Largest Abelian subgroup         C2V     NOp   4
 Largest concise Abelian subgroup C2      NOp   2
                         Standard orientation:                         
 ---------------------------------------------------------------------
 Center     Atomic      Atomic             Coordinates (Angstroms)
 Number     Number       Type             X           Y           Z
 ---------------------------------------------------------------------
      1          8           0        0.000000    0.000000    0.119491
      2          1           0        0.000000    0.737795   -0.477964
      3          1           0       -0.000000   -0.737795   -0.477964
 ---------------------------------------------------------------------
 Rotational constants (GHZ):         790.9290605         460.6070152         291.0882721
 Standard basis: 6-31G(d) (6D, 7F)
 There are    10 symmetry adapted cartesian basis functions of A1  symmetry.
 There are     1 symmetry adapted cartesian basis functions of A2  symmetry.
 There are     3 symmetry adapted cartesian basis functions of B1  symmetry.
 There are     5 symmetry adapted cartesian basis functions of B2  symmetry.
 There are    10 symmetry adapted basis functions of A1  symmetry.
 There are     1 symmetry adapted basis functions of A2  symmetry.
 There are     3 symmetry adapted basis functions of B1  symmetry.
 There are     5 symmetry adapted basis functions of B2  symmetry.
    19 basis functions,    36 primitive gaussians,    19 cartesian basis functions
     5 alpha electrons        5 beta electrons
       nuclear repulsion energy         9.2770413956 Hartrees.
 NAtoms=    3 NActive=    3 NUniq=    2 SFac= 2.25D+00 NAtFMM=   60 NAOKFM=F Big=F
 Integral buffers will be    131072 words long.
 Raffenetti 1 integral format.
 Two-electron integral symmetry is turned on.
 One-electron integrals computed using PRISM.
 NBasis=    19 RedAO= T EigKep=  2.20D-02  NBF=    10     1     3     5
 NBsUse=    19 1.00D-06 EigRej= -1.00D+00 NBFU=    10     1     3     5
 Initial guess from the checkpoint file:  "/scratch/webmodemo/webmo-4350/627084/Gau-13489.chk"
 B after Tr=    -0.000000    0.000000    0.000000
         Rot=    1.000000   -0.000000   -0.000000   -0.000000 Ang=   0.00 deg.
 Initial guess orbital symmetries:
       Occupied  (A1) (A1) (B2) (A1) (B1)
       Virtual   (A1) (B2) (B2) (A1) (B1) (A1) (B2) (A1) (A1) (A2)
                 (B1) (A1) (B2) (A1)
 Keep R1 ints in memory in symmetry-blocked form, NReq=845746.
 Requested convergence on RMS density matrix=1.00D-08 within 128 cycles.
 Requested convergence on MAX density matrix=1.00D-06.
 Requested convergence on             energy=1.00D-06.
 No special actions if energy rises.
 SCF Done:  E(RHF) =  -76.0103872258     A.U. after    8 cycles
            NFock=  8  Conv=0.42D-08     -V/T= 2.0020
 Calling FoFJK, ICntrl=      2127 FMM=F ISym2X=1 I1Cent= 0 IOpClX= 0 NMat=1 NMatS=1 NMatT=0.
 ***** Axes restored to original set *****
 -------------------------------------------------------------------
 Center     Atomic                   Forces (Hartrees/Bohr)
 Number     Number              X              Y              Z
 -------------------------------------------------------------------
      1        8           0.008347145    0.000000000    0.007004086
      2        1          -0.006566626   -0.000000000   -0.000650113
      3        1          -0.001780519   -0.000000000   -0.006353973
 -------------------------------------------------------------------
 Cartesian Forces:  Max     0.008347145 RMS     0.004782125

 GradGradGradGradGradGradGradGradGradGradGradGradGradGradGradGradGradGrad
 Berny optimization.
 FormGI is forming the generalized inverse of G from B-inverse, IUseBI=4.
 Internal  Forces:  Max     0.011799348 RMS     0.006826369
 Search for a local minimum.
 Step number   1 out of a maximum of   20 on scan point     3 out of    21
 All quantities printed in internal units (Hartrees-Bohrs-Radians)
 Mixed Optimization -- RFO/linear search
 Second derivative matrix not updated -- first step.
 The second derivative matrix:
                          R1        R2        A1
           R1           0.49891
           R2           0.10014   0.49891
           A1           0.03099   0.03099   0.16321
 ITU=  0
     Eigenvalues ---    0.39877   0.599051000.00000
 RFO step:  Lambda=-9.57058666D-07 EMin= 3.98766852D-01
 Linear search not attempted -- first point.
 Iteration  1 RMS(Cart)=  0.00062605 RMS(Int)=  0.00000000
 Iteration  2 RMS(Cart)=  0.00000000 RMS(Int)=  0.00000000
 Iteration  1 RMS(Cart)=  0.00000000 RMS(Int)=  0.00000000
 ClnCor:  largest displacement from symmetrization is 7.25D-15 for atom     3.
 Variable       Old X    -DE/DX   Delta X   Delta X   Delta X     New X
                                 (Linear)    (Quad)   (Total)
    R1        1.79404  -0.00054   0.00000  -0.00089  -0.00089   1.79315
    R2        1.79404  -0.00054   0.00000  -0.00089  -0.00089   1.79315
    A1        1.78024   0.01180   0.00000   0.00000  -0.00000   1.78024
         Item               Value     Threshold  Converged?
 Maximum Force            0.000535     0.000450     NO 
 RMS     Force            0.000535     0.000300     NO 
 Maximum Displacement     0.000653     0.001800     YES
 RMS     Displacement     0.000626     0.001200     YES
 Predicted change in Energy=-4.785293D-07
 GradGradGradGradGradGradGradGradGradGradGradGradGradGradGradGradGradGrad

                          Input orientation:                          
 ---------------------------------------------------------------------
 Center     Atomic      Atomic             Coordinates (Angstroms)
 Number     Number       Type             X           Y           Z
 ---------------------------------------------------------------------
      1          8           0        0.039717    0.000000    0.033326
      2          1           0        0.023156   -0.000000    0.982074
      3          1           0        0.971175    0.000000   -0.147731
 ---------------------------------------------------------------------
                    Distance matrix (angstroms):
                    1          2          3
     1  O    0.000000
     2  H    0.948892   0.000000
     3  H    0.948892   1.474855   0.000000
 Stoichiometry    H2O
 Framework group  C2V[C2(O),SGV(H2)]
 Deg. of freedom     2
 Full point group                 C2V     NOp   4
 Largest Abelian subgroup         C2V     NOp   4
 Largest concise Abelian subgroup C2      NOp   2
                         Standard orientation:                         
 ---------------------------------------------------------------------
 Center     Atomic      Atomic             Coordinates (Angstroms)
 Number     Number       Type             X           Y           Z
 ---------------------------------------------------------------------
      1          8           0        0.000000   -0.000000    0.119431
      2          1           0       -0.000000    0.737428   -0.477726
      3          1           0       -0.000000   -0.737428   -0.477726
 ---------------------------------------------------------------------
 Rotational constants (GHZ):         791.7177049         461.0662917         291.3785196
 Standard basis: 6-31G(d) (6D, 7F)
 There are    10 symmetry adapted cartesian basis functions of A1  symmetry.
 There are     1 symmetry adapted cartesian basis functions of A2  symmetry.
 There are     3 symmetry adapted cartesian basis functions of B1  symmetry.
 There are     5 symmetry adapted cartesian basis functions of B2  symmetry.
 There are    10 symmetry adapted basis functions of A1  symmetry.
 There are     1 symmetry adapted basis functions of A2  symmetry.
 There are     3 symmetry adapted basis functions of B1  symmetry.
 There are     5 symmetry adapted basis functions of B2  symmetry.
    19 basis functions,    36 primitive gaussians,    19 cartesian basis functions
     5 alpha electrons        5 beta electrons
       nuclear repulsion energy         9.2816653653 Hartrees.
 NAtoms=    3 NActive=    3 NUniq=    2 SFac= 2.25D+00 NAtFMM=   60 NAOKFM=F Big=F
 Integral buffers will be    131072 words long.
 Raffenetti 1 integral format.
 Two-electron integral symmetry is turned on.
 One-electron integrals computed using PRISM.
 NBasis=    19 RedAO= T EigKep=  2.20D-02  NBF=    10     1     3     5
 NBsUse=    19 1.00D-06 EigRej= -1.00D+00 NBFU=    10     1     3     5
 Initial guess from the checkpoint file:  "/scratch/webmodemo/webmo-4350/627084/Gau-13489.chk"
 B after Tr=     0.000000   -0.000000   -0.000000
         Rot=    1.000000    0.000000    0.000000   -0.000000 Ang=   0.00 deg.
 Initial guess orbital symmetries:
       Occupied  (A1) (A1) (B2) (A1) (B1)
       Virtual   (A1) (B2) (B2) (A1) (B1) (A1) (B2) (A1) (A1) (A2)
                 (B1) (A1) (B2) (A1)
 Keep R1 ints in memory in symmetry-blocked form, NReq=845746.
 Requested convergence on RMS density matrix=1.00D-08 within 128 cycles.
 Requested convergence on MAX density matrix=1.00D-06.
 Requested convergence on             energy=1.00D-06.
 No special actions if energy rises.
 SCF Done:  E(RHF) =  -76.0103877037     A.U. after    7 cycles
            NFock=  7  Conv=0.41D-08     -V/T= 2.0020
 Calling FoFJK, ICntrl=      2127 FMM=F ISym2X=1 I1Cent= 0 IOpClX= 0 NMat=1 NMatS=1 NMatT=0.
 ***** Axes restored to original set *****
 -------------------------------------------------------------------
 Center     Atomic                   Forces (Hartrees/Bohr)
 Number     Number              X              Y              Z
 -------------------------------------------------------------------
      1        8           0.007869919    0.000000000    0.006603646
      2        1          -0.006609535   -0.000000000   -0.000114389
      3        1          -0.001260385   -0.000000000   -0.006489257
 -------------------------------------------------------------------
 Cartesian Forces:  Max     0.007869919 RMS     0.004630117

 GradGradGradGradGradGradGradGradGradGradGradGradGradGradGradGradGradGrad
 Berny optimization.
 Using GEDIIS/GDIIS optimizer.
 FormGI is forming the generalized inverse of G from B-inverse, IUseBI=4.
 Internal  Forces:  Max     0.011853634 RMS     0.006843699
 Search for a local minimum.
 Step number   2 out of a maximum of   20 on scan point     3 out of    21
 All quantities printed in internal units (Hartrees-Bohrs-Radians)
 Mixed Optimization -- En-DIIS/RFO-DIIS
 Update second derivatives using D2CorX and points    1    2
 DE= -4.78D-07 DEPred=-4.79D-07 R= 9.99D-01
 Trust test= 9.99D-01 RLast= 1.26D-03 DXMaxT set to 5.05D-01
 The second derivative matrix:
                          R1        R2        A1
           R1           0.49946
           R2           0.10069   0.49946
           A1           0.03037   0.03037   0.16307
 ITU=  0  0
 Use linear search instead of GDIIS.
     Eigenvalues ---    0.39877   0.600151000.00000
 RFO step:  Lambda= 0.00000000D+00 EMin= 3.98766852D-01
 Quartic linear search produced a step of -0.00183.
 Iteration  1 RMS(Cart)=  0.00000114 RMS(Int)=  0.00000000
 Iteration  2 RMS(Cart)=  0.00000000 RMS(Int)=  0.00000000
 Iteration  1 RMS(Cart)=  0.00000000 RMS(Int)=  0.00000000
 ClnCor:  largest displacement from symmetrization is 4.70D-15 for atom     3.
 Variable       Old X    -DE/DX   Delta X   Delta X   Delta X     New X
                                 (Linear)    (Quad)   (Total)
    R1        1.79315   0.00000   0.00000   0.00000   0.00000   1.79315
    R2        1.79315   0.00000   0.00000  -0.00000   0.00000   1.79315
    A1        1.78024   0.01185   0.00000   0.00000   0.00000   1.78024
         Item               Value     Threshold  Converged?
 Maximum Force            0.000001     0.000450     YES
 RMS     Force            0.000001     0.000300     YES
 Maximum Displacement     0.000001     0.001800     YES
 RMS     Displacement     0.000001     0.001200     YES
 Predicted change in Energy=-1.602587D-12
 Optimization completed.
    -- Stationary point found.
                           ----------------------------
                           !   Optimized Parameters   !
                           ! (Angstroms and Degrees)  !
 --------------------------                            --------------------------
 ! Name  Definition              Value          Derivative Info.                !
 --------------------------------------------------------------------------------
 ! R1    R(1,2)                  0.9489         -DE/DX =    0.0                 !
 ! R2    R(1,3)                  0.9489         -DE/DX =    0.0                 !
 ! A1    A(2,1,3)              102.0            -DE/DX =    0.0119              !
 --------------------------------------------------------------------------------
 Iteration  1 RMS(Cart)=  0.00987494 RMS(Int)=  0.00005575
 Iteration  2 RMS(Cart)=  0.00004786 RMS(Int)=  0.00000000
 Iteration  3 RMS(Cart)=  0.00000000 RMS(Int)=  0.00000000
 Iteration  1 RMS(Cart)=  0.00000000 RMS(Int)=  0.00000000
 GradGradGradGradGradGradGradGradGradGradGradGradGradGradGradGradGradGrad

                          Input orientation:                          
 ---------------------------------------------------------------------
 Center     Atomic      Atomic             Coordinates (Angstroms)
 Number     Number       Type             X           Y           Z
 ---------------------------------------------------------------------
      1          8           0        0.043015   -0.000000    0.036094
      2          1           0        0.018175   -0.000000    0.984661
      3          1           0        0.972858    0.000000   -0.153085
 ---------------------------------------------------------------------
                    Distance matrix (angstroms):
                    1          2          3
     1  O    0.000000
     2  H    0.948893   0.000000
     3  H    0.948893   1.485222   0.000000
 Stoichiometry    H2O
 Framework group  C2V[C2(O),SGV(H2)]
 Deg. of freedom     2
 Full point group                 C2V     NOp   4
 Largest Abelian subgroup         C2V     NOp   4
 Largest concise Abelian subgroup C2      NOp   2
                         Standard orientation:                         
 ---------------------------------------------------------------------
 Center     Atomic      Atomic             Coordinates (Angstroms)
 Number     Number       Type             X           Y           Z
 ---------------------------------------------------------------------
      1          8           0        0.000000   -0.000000    0.118140
      2          1           0       -0.000000    0.742611   -0.472560
      3          1           0       -0.000000   -0.742611   -0.472560
 ---------------------------------------------------------------------
 Rotational constants (GHZ):         809.1220569         454.6519215         291.0875712
 Standard basis: 6-31G(d) (6D, 7F)
 There are    10 symmetry adapted cartesian basis functions of A1  symmetry.
 There are     1 symmetry adapted cartesian basis functions of A2  symmetry.
 There are     3 symmetry adapted cartesian basis functions of B1  symmetry.
 There are     5 symmetry adapted cartesian basis functions of B2  symmetry.
 There are    10 symmetry adapted basis functions of A1  symmetry.
 There are     1 symmetry adapted basis functions of A2  symmetry.
 There are     3 symmetry adapted basis functions of B1  symmetry.
 There are     5 symmetry adapted basis functions of B2  symmetry.
    19 basis functions,    36 primitive gaussians,    19 cartesian basis functions
     5 alpha electrons        5 beta electrons
       nuclear repulsion energy         9.2791526903 Hartrees.
 NAtoms=    3 NActive=    3 NUniq=    2 SFac= 2.25D+00 NAtFMM=   60 NAOKFM=F Big=F
 Integral buffers will be    131072 words long.
 Raffenetti 1 integral format.
 Two-electron integral symmetry is turned on.
 One-electron integrals computed using PRISM.
 NBasis=    19 RedAO= T EigKep=  2.20D-02  NBF=    10     1     3     5
 NBsUse=    19 1.00D-06 EigRej= -1.00D+00 NBFU=    10     1     3     5
 Initial guess from the checkpoint file:  "/scratch/webmodemo/webmo-4350/627084/Gau-13489.chk"
 B after Tr=    -0.000000    0.000000   -0.000000
         Rot=    1.000000   -0.000000   -0.000000    0.000000 Ang=   0.00 deg.
 Initial guess orbital symmetries:
       Occupied  (A1) (A1) (B2) (A1) (B1)
       Virtual   (A1) (B2) (B2) (A1) (B1) (A1) (B2) (A1) (A1) (A2)
                 (B1) (A1) (B2) (A1)
 Keep R1 ints in memory in symmetry-blocked form, NReq=845746.
 Requested convergence on RMS density matrix=1.00D-08 within 128 cycles.
 Requested convergence on MAX density matrix=1.00D-06.
 Requested convergence on             energy=1.00D-06.
 No special actions if energy rises.
 SCF Done:  E(RHF) =  -76.0105639427     A.U. after    8 cycles
            NFock=  8  Conv=0.42D-08     -V/T= 2.0020
 Calling FoFJK, ICntrl=      2127 FMM=F ISym2X=1 I1Cent= 0 IOpClX= 0 NMat=1 NMatS=1 NMatT=0.
 ***** Axes restored to original set *****
 -------------------------------------------------------------------
 Center     Atomic                   Forces (Hartrees/Bohr)
 Number     Number              X              Y              Z
 -------------------------------------------------------------------
      1        8           0.006084522    0.000000000    0.005105520
      2        1          -0.004641707   -0.000000000   -0.000646615
      3        1          -0.001442815   -0.000000000   -0.004458905
 -------------------------------------------------------------------
 Cartesian Forces:  Max     0.006084522 RMS     0.003448266

 GradGradGradGradGradGradGradGradGradGradGradGradGradGradGradGradGradGrad
 Berny optimization.
 FormGI is forming the generalized inverse of G from B-inverse, IUseBI=4.
 Internal  Forces:  Max     0.008350764 RMS     0.004840326
 Search for a local minimum.
 Step number   1 out of a maximum of   20 on scan point     4 out of    21
 All quantities printed in internal units (Hartrees-Bohrs-Radians)
 Mixed Optimization -- RFO/linear search
 Second derivative matrix not updated -- first step.
 The second derivative matrix:
                          R1        R2        A1
           R1           0.49946
           R2           0.10069   0.49946
           A1           0.03037   0.03037   0.16307
 ITU=  0
     Eigenvalues ---    0.39877   0.600151000.00000
 RFO step:  Lambda=-9.18125544D-07 EMin= 3.98766852D-01
 Linear search not attempted -- first point.
 Iteration  1 RMS(Cart)=  0.00061498 RMS(Int)=  0.00000000
 Iteration  2 RMS(Cart)=  0.00000000 RMS(Int)=  0.00000000
 Iteration  1 RMS(Cart)=  0.00000000 RMS(Int)=  0.00000000
 ClnCor:  largest displacement from symmetrization is 2.75D-15 for atom     3.
 Variable       Old X    -DE/DX   Delta X   Delta X   Delta X     New X
                                 (Linear)    (Quad)   (Total)
    R1        1.79315  -0.00052   0.00000  -0.00087  -0.00087   1.79227
    R2        1.79315  -0.00052   0.00000  -0.00087  -0.00087   1.79227
    A1        1.79769   0.00835   0.00000   0.00000   0.00000   1.79769
         Item               Value     Threshold  Converged?
 Maximum Force            0.000525     0.000450     NO 
 RMS     Force            0.000525     0.000300     NO 
 Maximum Displacement     0.000641     0.001800     YES
 RMS     Displacement     0.000615     0.001200     YES
 Predicted change in Energy=-4.590628D-07
 GradGradGradGradGradGradGradGradGradGradGradGradGradGradGradGradGradGrad

                          Input orientation:                          
 ---------------------------------------------------------------------
 Center     Atomic      Atomic             Coordinates (Angstroms)
 Number     Number       Type             X           Y           Z
 ---------------------------------------------------------------------
      1          8           0        0.043162   -0.000000    0.036217
      2          1           0        0.018335   -0.000000    0.984322
      3          1           0        0.972552    0.000000   -0.152870
 ---------------------------------------------------------------------
                    Distance matrix (angstroms):
                    1          2          3
     1  O    0.000000
     2  H    0.948430   0.000000
     3  H    0.948430   1.484498   0.000000
 Stoichiometry    H2O
 Framework group  C2V[C2(O),SGV(H2)]
 Deg. of freedom     2
 Full point group                 C2V     NOp   4
 Largest Abelian subgroup         C2V     NOp   4
 Largest concise Abelian subgroup C2      NOp   2
                         Standard orientation:                         
 ---------------------------------------------------------------------
 Center     Atomic      Atomic             Coordinates (Angstroms)
 Number     Number       Type             X           Y           Z
 ---------------------------------------------------------------------
      1          8           0        0.000000    0.000000    0.118082
      2          1           0       -0.000000    0.742249   -0.472329
      3          1           0       -0.000000   -0.742249   -0.472329
 ---------------------------------------------------------------------
 Rotational constants (GHZ):         809.9119185         455.0957508         291.3717297
 Standard basis: 6-31G(d) (6D, 7F)
 There are    10 symmetry adapted cartesian basis functions of A1  symmetry.
 There are     1 symmetry adapted cartesian basis functions of A2  symmetry.
 There are     3 symmetry adapted cartesian basis functions of B1  symmetry.
 There are     5 symmetry adapted cartesian basis functions of B2  symmetry.
 There are    10 symmetry adapted basis functions of A1  symmetry.
 There are     1 symmetry adapted basis functions of A2  symmetry.
 There are     3 symmetry adapted basis functions of B1  symmetry.
 There are     5 symmetry adapted basis functions of B2  symmetry.
    19 basis functions,    36 primitive gaussians,    19 cartesian basis functions
     5 alpha electrons        5 beta electrons
       nuclear repulsion energy         9.2836807207 Hartrees.
 NAtoms=    3 NActive=    3 NUniq=    2 SFac= 2.25D+00 NAtFMM=   60 NAOKFM=F Big=F
 Integral buffers will be    131072 words long.
 Raffenetti 1 integral format.
 Two-electron integral symmetry is turned on.
 One-electron integrals computed using PRISM.
 NBasis=    19 RedAO= T EigKep=  2.20D-02  NBF=    10     1     3     5
 NBsUse=    19 1.00D-06 EigRej= -1.00D+00 NBFU=    10     1     3     5
 Initial guess from the checkpoint file:  "/scratch/webmodemo/webmo-4350/627084/Gau-13489.chk"
 B after Tr=     0.000000   -0.000000    0.000000
         Rot=    1.000000    0.000000   -0.000000   -0.000000 Ang=   0.00 deg.
 Initial guess orbital symmetries:
       Occupied  (A1) (A1) (B2) (A1) (B1)
       Virtual   (A1) (B2) (B2) (A1) (B1) (A1) (B2) (A1) (A1) (A2)
                 (B1) (A1) (B2) (A1)
 Keep R1 ints in memory in symmetry-blocked form, NReq=845746.
 Requested convergence on RMS density matrix=1.00D-08 within 128 cycles.
 Requested convergence on MAX density matrix=1.00D-06.
 Requested convergence on             energy=1.00D-06.
 No special actions if energy rises.
 SCF Done:  E(RHF) =  -76.0105644009     A.U. after    7 cycles
            NFock=  7  Conv=0.40D-08     -V/T= 2.0020
 Calling FoFJK, ICntrl=      2127 FMM=F ISym2X=1 I1Cent= 0 IOpClX= 0 NMat=1 NMatS=1 NMatT=0.
 ***** Axes restored to original set *****
 -------------------------------------------------------------------
 Center     Atomic                   Forces (Hartrees/Bohr)
 Number     Number              X              Y              Z
 -------------------------------------------------------------------
      1        8           0.005620277    0.000000000    0.004715972
      2        1          -0.004686808   -0.000000000   -0.000121459
      3        1          -0.000933469   -0.000000000   -0.004594513
 -------------------------------------------------------------------
 Cartesian Forces:  Max     0.005620277 RMS     0.003296290

 GradGradGradGradGradGradGradGradGradGradGradGradGradGradGradGradGradGrad
 Berny optimization.
 Using GEDIIS/GDIIS optimizer.
 FormGI is forming the generalized inverse of G from B-inverse, IUseBI=4.
 Internal  Forces:  Max     0.008402858 RMS     0.004851393
 Search for a local minimum.
 Step number   2 out of a maximum of   20 on scan point     4 out of    21
 All quantities printed in internal units (Hartrees-Bohrs-Radians)
 Mixed Optimization -- En-DIIS/RFO-DIIS
 Update second derivatives using D2CorX and points    1    2
 DE= -4.58D-07 DEPred=-4.59D-07 R= 9.98D-01
 Trust test= 9.98D-01 RLast= 1.24D-03 DXMaxT set to 5.05D-01
 The second derivative matrix:
                          R1        R2        A1
           R1           0.50018
           R2           0.10142   0.50018
           A1           0.02978   0.02978   0.16295
 ITU=  0  0
 Use linear search instead of GDIIS.
     Eigenvalues ---    0.39877   0.601601000.00000
 RFO step:  Lambda= 0.00000000D+00 EMin= 3.98766852D-01
 Quartic linear search produced a step of -0.00241.
 Iteration  1 RMS(Cart)=  0.00000148 RMS(Int)=  0.00000000
 Iteration  2 RMS(Cart)=  0.00000000 RMS(Int)=  0.00000000
 Iteration  1 RMS(Cart)=  0.00000000 RMS(Int)=  0.00000000
 ClnCor:  largest displacement from symmetrization is 1.34D-15 for atom     3.
 Variable       Old X    -DE/DX   Delta X   Delta X   Delta X     New X
                                 (Linear)    (Quad)   (Total)
    R1        1.79227   0.00000   0.00000   0.00000   0.00000   1.79228
    R2        1.79227   0.00000   0.00000  -0.00000   0.00000   1.79228
    A1        1.79769   0.00840  -0.00000   0.00000   0.00000   1.79769
         Item               Value     Threshold  Converged?
 Maximum Force            0.000001     0.000450     YES
 RMS     Force            0.000001     0.000300     YES
 Maximum Displacement     0.000002     0.001800     YES
 RMS     Displacement     0.000001     0.001200     YES
 Predicted change in Energy=-2.676024D-12
 Optimization completed.
    -- Stationary point found.
                           ----------------------------
                           !   Optimized Parameters   !
                           ! (Angstroms and Degrees)  !
 --------------------------                            --------------------------
 ! Name  Definition              Value          Derivative Info.                !
 --------------------------------------------------------------------------------
 ! R1    R(1,2)                  0.9484         -DE/DX =    0.0                 !
 ! R2    R(1,3)                  0.9484         -DE/DX =    0.0                 !
 ! A1    A(2,1,3)              103.0            -DE/DX =    0.0084              !
 --------------------------------------------------------------------------------
 Iteration  1 RMS(Cart)=  0.00982310 RMS(Int)=  0.00005572
 Iteration  2 RMS(Cart)=  0.00004802 RMS(Int)=  0.00000000
 Iteration  3 RMS(Cart)=  0.00000000 RMS(Int)=  0.00000000
 Iteration  1 RMS(Cart)=  0.00000000 RMS(Int)=  0.00000000
 GradGradGradGradGradGradGradGradGradGradGradGradGradGradGradGradGradGrad

                          Input orientation:                          
 ---------------------------------------------------------------------
 Center     Atomic      Atomic             Coordinates (Angstroms)
 Number     Number       Type             X           Y           Z
 ---------------------------------------------------------------------
      1          8           0        0.046481   -0.000000    0.039002
      2          1           0        0.013381   -0.000000    0.986855
      3          1           0        0.974186    0.000000   -0.158188
 ---------------------------------------------------------------------
                    Distance matrix (angstroms):
                    1          2          3
     1  O    0.000000
     2  H    0.948431   0.000000
     3  H    0.948431   1.494748   0.000000
 Stoichiometry    H2O
 Framework group  C2V[C2(O),SGV(H2)]
 Deg. of freedom     2
 Full point group                 C2V     NOp   4
 Largest Abelian subgroup         C2V     NOp   4
 Largest concise Abelian subgroup C2      NOp   2
                         Standard orientation:                         
 ---------------------------------------------------------------------
 Center     Atomic      Atomic             Coordinates (Angstroms)
 Number     Number       Type             X           Y           Z
 ---------------------------------------------------------------------
      1          8           0        0.000000    0.000000    0.116782
      2          1           0       -0.000000    0.747374   -0.467130
      3          1           0       -0.000000   -0.747374   -0.467130
 ---------------------------------------------------------------------
 Rotational constants (GHZ):         828.0412004         448.8758205         291.0820884
 Standard basis: 6-31G(d) (6D, 7F)
 There are    10 symmetry adapted cartesian basis functions of A1  symmetry.
 There are     1 symmetry adapted cartesian basis functions of A2  symmetry.
 There are     3 symmetry adapted cartesian basis functions of B1  symmetry.
 There are     5 symmetry adapted cartesian basis functions of B2  symmetry.
 There are    10 symmetry adapted basis functions of A1  symmetry.
 There are     1 symmetry adapted basis functions of A2  symmetry.
 There are     3 symmetry adapted basis functions of B1  symmetry.
 There are     5 symmetry adapted basis functions of B2  symmetry.
    19 basis functions,    36 primitive gaussians,    19 cartesian basis functions
     5 alpha electrons        5 beta electrons
       nuclear repulsion energy         9.2812258687 Hartrees.
 NAtoms=    3 NActive=    3 NUniq=    2 SFac= 2.25D+00 NAtFMM=   60 NAOKFM=F Big=F
 Integral buffers will be    131072 words long.
 Raffenetti 1 integral format.
 Two-electron integral symmetry is turned on.
 One-electron integrals computed using PRISM.
 NBasis=    19 RedAO= T EigKep=  2.20D-02  NBF=    10     1     3     5
 NBsUse=    19 1.00D-06 EigRej= -1.00D+00 NBFU=    10     1     3     5
 Initial guess from the checkpoint file:  "/scratch/webmodemo/webmo-4350/627084/Gau-13489.chk"
 B after Tr=    -0.000000   -0.000000    0.000000
         Rot=    1.000000    0.000000   -0.000000    0.000000 Ang=   0.00 deg.
 Initial guess orbital symmetries:
       Occupied  (A1) (A1) (B2) (A1) (B1)
       Virtual   (A1) (B2) (B2) (A1) (B1) (A1) (B2) (A1) (A1) (A2)
                 (B1) (A1) (B2) (A1)
 Keep R1 ints in memory in symmetry-blocked form, NReq=845746.
 Requested convergence on RMS density matrix=1.00D-08 within 128 cycles.
 Requested convergence on MAX density matrix=1.00D-06.
 Requested convergence on             energy=1.00D-06.
 No special actions if energy rises.
 SCF Done:  E(RHF) =  -76.0106808674     A.U. after    8 cycles
            NFock=  8  Conv=0.42D-08     -V/T= 2.0020
 Calling FoFJK, ICntrl=      2127 FMM=F ISym2X=1 I1Cent= 0 IOpClX= 0 NMat=1 NMatS=1 NMatT=0.
 ***** Axes restored to original set *****
 -------------------------------------------------------------------
 Center     Atomic                   Forces (Hartrees/Bohr)
 Number     Number              X              Y              Z
 -------------------------------------------------------------------
      1        8           0.003821656    0.000000000    0.003206750
      2        1          -0.002743514   -0.000000000   -0.000611018
      3        1          -0.001078142   -0.000000000   -0.002595732
 -------------------------------------------------------------------
 Cartesian Forces:  Max     0.003821656 RMS     0.002126257

 GradGradGradGradGradGradGradGradGradGradGradGradGradGradGradGradGradGrad
 Berny optimization.
 FormGI is forming the generalized inverse of G from B-inverse, IUseBI=4.
 Internal  Forces:  Max     0.004952355 RMS     0.002889986
 Search for a local minimum.
 Step number   1 out of a maximum of   20 on scan point     5 out of    21
 All quantities printed in internal units (Hartrees-Bohrs-Radians)
 Mixed Optimization -- RFO/linear search
 Second derivative matrix not updated -- first step.
 The second derivative matrix:
                          R1        R2        A1
           R1           0.50018
           R2           0.10142   0.50018
           A1           0.02978   0.02978   0.16295
 ITU=  0
     Eigenvalues ---    0.39877   0.601601000.00000
 RFO step:  Lambda=-8.81381225D-07 EMin= 3.98766852D-01
 Linear search not attempted -- first point.
 Iteration  1 RMS(Cart)=  0.00060411 RMS(Int)=  0.00000000
 Iteration  2 RMS(Cart)=  0.00000000 RMS(Int)=  0.00000000
 Iteration  1 RMS(Cart)=  0.00000000 RMS(Int)=  0.00000000
 ClnCor:  largest displacement from symmetrization is 5.04D-15 for atom     3.
 Variable       Old X    -DE/DX   Delta X   Delta X   Delta X     New X
                                 (Linear)    (Quad)   (Total)
    R1        1.79228  -0.00051   0.00000  -0.00086  -0.00086   1.79142
    R2        1.79228  -0.00051   0.00000  -0.00086  -0.00086   1.79142
    A1        1.81514   0.00495   0.00000   0.00000  -0.00000   1.81514
         Item               Value     Threshold  Converged?
 Maximum Force            0.000515     0.000450     NO 
 RMS     Force            0.000515     0.000300     NO 
 Maximum Displacement     0.000630     0.001800     YES
 RMS     Displacement     0.000604     0.001200     YES
 Predicted change in Energy=-4.406906D-07
 GradGradGradGradGradGradGradGradGradGradGradGradGradGradGradGradGradGrad

                          Input orientation:                          
 ---------------------------------------------------------------------
 Center     Atomic      Atomic             Coordinates (Angstroms)
 Number     Number       Type             X           Y           Z
 ---------------------------------------------------------------------
      1          8           0        0.046623   -0.000000    0.039121
      2          1           0        0.013539   -0.000000    0.986522
      3          1           0        0.973886    0.000000   -0.157974
 ---------------------------------------------------------------------
                    Distance matrix (angstroms):
                    1          2          3
     1  O    0.000000
     2  H    0.947978   0.000000
     3  H    0.947978   1.494034   0.000000
 Stoichiometry    H2O
 Framework group  C2V[C2(O),SGV(H2)]
 Deg. of freedom     2
 Full point group                 C2V     NOp   4
 Largest Abelian subgroup         C2V     NOp   4
 Largest concise Abelian subgroup C2      NOp   2
                         Standard orientation:                         
 ---------------------------------------------------------------------
 Center     Atomic      Atomic             Coordinates (Angstroms)
 Number     Number       Type             X           Y           Z
 ---------------------------------------------------------------------
      1          8           0       -0.000000   -0.000000    0.116727
      2          1           0        0.000000    0.747017   -0.466907
      3          1           0       -0.000000   -0.747017   -0.466907
 ---------------------------------------------------------------------
 Rotational constants (GHZ):         828.8326074         449.3048371         291.3602925
 Standard basis: 6-31G(d) (6D, 7F)
 There are    10 symmetry adapted cartesian basis functions of A1  symmetry.
 There are     1 symmetry adapted cartesian basis functions of A2  symmetry.
 There are     3 symmetry adapted cartesian basis functions of B1  symmetry.
 There are     5 symmetry adapted cartesian basis functions of B2  symmetry.
 There are    10 symmetry adapted basis functions of A1  symmetry.
 There are     1 symmetry adapted basis functions of A2  symmetry.
 There are     3 symmetry adapted basis functions of B1  symmetry.
 There are     5 symmetry adapted basis functions of B2  symmetry.
    19 basis functions,    36 primitive gaussians,    19 cartesian basis functions
     5 alpha electrons        5 beta electrons
       nuclear repulsion energy         9.2856601125 Hartrees.
 NAtoms=    3 NActive=    3 NUniq=    2 SFac= 2.25D+00 NAtFMM=   60 NAOKFM=F Big=F
 Integral buffers will be    131072 words long.
 Raffenetti 1 integral format.
 Two-electron integral symmetry is turned on.
 One-electron integrals computed using PRISM.
 NBasis=    19 RedAO= T EigKep=  2.19D-02  NBF=    10     1     3     5
 NBsUse=    19 1.00D-06 EigRej= -1.00D+00 NBFU=    10     1     3     5
 Initial guess from the checkpoint file:  "/scratch/webmodemo/webmo-4350/627084/Gau-13489.chk"
 B after Tr=     0.000000    0.000000    0.000000
         Rot=    1.000000   -0.000000    0.000000    0.000000 Ang=   0.00 deg.
 Initial guess orbital symmetries:
       Occupied  (A1) (A1) (B2) (A1) (B1)
       Virtual   (A1) (B2) (B2) (A1) (B1) (A1) (B2) (A1) (A1) (A2)
                 (B1) (A1) (B2) (A1)
 Keep R1 ints in memory in symmetry-blocked form, NReq=845746.
 Requested convergence on RMS density matrix=1.00D-08 within 128 cycles.
 Requested convergence on MAX density matrix=1.00D-06.
 Requested convergence on             energy=1.00D-06.
 No special actions if energy rises.
 SCF Done:  E(RHF) =  -76.0106813073     A.U. after    7 cycles
            NFock=  7  Conv=0.40D-08     -V/T= 2.0020
 Calling FoFJK, ICntrl=      2127 FMM=F ISym2X=1 I1Cent= 0 IOpClX= 0 NMat=1 NMatS=1 NMatT=0.
 ***** Axes restored to original set *****
 -------------------------------------------------------------------
 Center     Atomic                   Forces (Hartrees/Bohr)
 Number     Number              X              Y              Z
 -------------------------------------------------------------------
      1        8           0.003370143    0.000000000    0.002827885
      2        1          -0.002790754   -0.000000000   -0.000096242
      3        1          -0.000579389   -0.000000000   -0.002731644
 -------------------------------------------------------------------
 Cartesian Forces:  Max     0.003370143 RMS     0.001970616

 GradGradGradGradGradGradGradGradGradGradGradGradGradGradGradGradGradGrad
 Berny optimization.
 Using GEDIIS/GDIIS optimizer.
 FormGI is forming the generalized inverse of G from B-inverse, IUseBI=4.
 Internal  Forces:  Max     0.005002381 RMS     0.002888126
 Search for a local minimum.
 Step number   2 out of a maximum of   20 on scan point     5 out of    21
 All quantities printed in internal units (Hartrees-Bohrs-Radians)
 Mixed Optimization -- En-DIIS/RFO-DIIS
 Update second derivatives using D2CorX and points    1    2
 DE= -4.40D-07 DEPred=-4.41D-07 R= 9.98D-01
 Trust test= 9.98D-01 RLast= 1.21D-03 DXMaxT set to 5.05D-01
 The second derivative matrix:
                          R1        R2        A1
           R1           0.50089
           R2           0.10213   0.50089
           A1           0.02922   0.02922   0.16283
 ITU=  0  0
 Use linear search instead of GDIIS.
     Eigenvalues ---    0.39877   0.603021000.00000
 RFO step:  Lambda= 0.00000000D+00 EMin= 3.98766852D-01
 Quartic linear search produced a step of -0.00235.
 Iteration  1 RMS(Cart)=  0.00000142 RMS(Int)=  0.00000000
 Iteration  2 RMS(Cart)=  0.00000000 RMS(Int)=  0.00000000
 Iteration  1 RMS(Cart)=  0.00000000 RMS(Int)=  0.00000000
 ClnCor:  largest displacement from symmetrization is 4.97D-15 for atom     3.
 Variable       Old X    -DE/DX   Delta X   Delta X   Delta X     New X
                                 (Linear)    (Quad)   (Total)
    R1        1.79142   0.00000   0.00000   0.00000   0.00000   1.79142
    R2        1.79142   0.00000   0.00000  -0.00000   0.00000   1.79142
    A1        1.81514   0.00500   0.00000   0.00000   0.00000   1.81514
         Item               Value     Threshold  Converged?
 Maximum Force            0.000001     0.000450     YES
 RMS     Force            0.000001     0.000300     YES
 Maximum Displacement     0.000001     0.001800     YES
 RMS     Displacement     0.000001     0.001200     YES
 Predicted change in Energy=-2.439564D-12
 Optimization completed.
    -- Stationary point found.
                           ----------------------------
                           !   Optimized Parameters   !
                           ! (Angstroms and Degrees)  !
 --------------------------                            --------------------------
 ! Name  Definition              Value          Derivative Info.                !
[...]
      2          1           0        0.000000    0.815842   -0.376821
      3          1           0       -0.000000   -0.815842   -0.376821
 ---------------------------------------------------------------------
 Rotational constants (GHZ):        1272.4975876         376.6953936         290.6536622
 Standard basis: 6-31G(d) (6D, 7F)
 There are    10 symmetry adapted cartesian basis functions of A1  symmetry.
 There are     1 symmetry adapted cartesian basis functions of A2  symmetry.
 There are     3 symmetry adapted cartesian basis functions of B1  symmetry.
 There are     5 symmetry adapted cartesian basis functions of B2  symmetry.
 There are    10 symmetry adapted basis functions of A1  symmetry.
 There are     1 symmetry adapted basis functions of A2  symmetry.
 There are     3 symmetry adapted basis functions of B1  symmetry.
 There are     5 symmetry adapted basis functions of B2  symmetry.
    19 basis functions,    36 primitive gaussians,    19 cartesian basis functions
     5 alpha electrons        5 beta electrons
       nuclear repulsion energy         9.3119578811 Hartrees.
 NAtoms=    3 NActive=    3 NUniq=    2 SFac= 2.25D+00 NAtFMM=   60 NAOKFM=F Big=F
 Integral buffers will be    131072 words long.
 Raffenetti 1 integral format.
 Two-electron integral symmetry is turned on.
 One-electron integrals computed using PRISM.
 NBasis=    19 RedAO= T EigKep=  2.20D-02  NBF=    10     1     3     5
 NBsUse=    19 1.00D-06 EigRej= -1.00D+00 NBFU=    10     1     3     5
 Initial guess from the checkpoint file:  "/scratch/webmodemo/webmo-4350/627084/Gau-13489.chk"
 B after Tr=    -0.000000   -0.000000   -0.000000
         Rot=    1.000000   -0.000000   -0.000000    0.000000 Ang=   0.00 deg.
 Initial guess orbital symmetries:
       Occupied  (A1) (A1) (B2) (A1) (B1)
       Virtual   (A1) (B2) (A1) (B2) (A1) (B1) (A1) (B2) (A2) (A1)
                 (B1) (A1) (B2) (A1)
 Keep R1 ints in memory in symmetry-blocked form, NReq=845746.
 Requested convergence on RMS density matrix=1.00D-08 within 128 cycles.
 Requested convergence on MAX density matrix=1.00D-06.
 Requested convergence on             energy=1.00D-06.
 No special actions if energy rises.
 SCF Done:  E(RHF) =  -76.0052273358     A.U. after    8 cycles
            NFock=  8  Conv=0.43D-08     -V/T= 2.0020
 Calling FoFJK, ICntrl=      2127 FMM=F ISym2X=1 I1Cent= 0 IOpClX= 0 NMat=1 NMatS=1 NMatT=0.
 ***** Axes restored to original set *****
 -------------------------------------------------------------------
 Center     Atomic                   Forces (Hartrees/Bohr)
 Number     Number              X              Y              Z
 -------------------------------------------------------------------
      1        8          -0.030502392    0.000000000   -0.025594546
      2        1           0.022952358    0.000000000    0.003619385
      3        1           0.007550034   -0.000000000    0.021975161
 -------------------------------------------------------------------
 Cartesian Forces:  Max     0.030502392 RMS     0.017208842

 GradGradGradGradGradGradGradGradGradGradGradGradGradGradGradGradGradGrad
 Berny optimization.
 FormGI is forming the generalized inverse of G from B-inverse, IUseBI=4.
 Internal  Forces:  Max     0.041358398 RMS     0.023880759
 Search for a local minimum.
 Step number   1 out of a maximum of   20 on scan point    21 out of    21
 All quantities printed in internal units (Hartrees-Bohrs-Radians)
 Mixed Optimization -- RFO/linear search
 Second derivative matrix not updated -- first step.
 The second derivative matrix:
                          R1        R2        A1
           R1           0.50089
           R2           0.10213   0.50089
           A1           0.02922   0.02922   0.16283
 ITU=  0
     Eigenvalues ---    0.39877   0.603021000.00000
 RFO step:  Lambda=-5.88504846D-07 EMin= 3.98766852D-01
 Linear search not attempted -- first point.
 Iteration  1 RMS(Cart)=  0.00052066 RMS(Int)=  0.00000000
 Iteration  2 RMS(Cart)=  0.00000000 RMS(Int)=  0.00000000
 Iteration  1 RMS(Cart)=  0.00000000 RMS(Int)=  0.00000000
 ClnCor:  largest displacement from symmetrization is 1.61D-15 for atom     2.
 Variable       Old X    -DE/DX   Delta X   Delta X   Delta X     New X
                                 (Linear)    (Quad)   (Total)
    R1        1.78022  -0.00042   0.00000  -0.00070  -0.00070   1.77952
    R2        1.78022  -0.00042   0.00000  -0.00070  -0.00070   1.77952
    A1        2.09440  -0.04136   0.00000   0.00000  -0.00000   2.09440
         Item               Value     Threshold  Converged?
 Maximum Force            0.000421     0.000450     YES
 RMS     Force            0.000421     0.000300     NO 
 Maximum Displacement     0.000538     0.001800     YES
 RMS     Displacement     0.000521     0.001200     YES
 Predicted change in Energy=-2.942524D-07
 GradGradGradGradGradGradGradGradGradGradGradGradGradGradGradGradGradGrad

                          Input orientation:                          
 ---------------------------------------------------------------------
 Center     Atomic      Atomic             Coordinates (Angstroms)
 Number     Number       Type             X           Y           Z
 ---------------------------------------------------------------------
      1          8           0        0.104226   -0.000000    0.087456
      2          1           0       -0.059296   -0.000000    1.014833
      3          1           0        0.989118    0.000000   -0.234619
 ---------------------------------------------------------------------
                    Distance matrix (angstroms):
                    1          2          3
     1  O    0.000000
     2  H    0.941683   0.000000
     3  H    0.941683   1.631043   0.000000
 Stoichiometry    H2O
 Framework group  C2V[C2(O),SGV(H2)]
 Deg. of freedom     2
 Full point group                 C2V     NOp   4
 Largest Abelian subgroup         C2V     NOp   4
 Largest concise Abelian subgroup C2      NOp   2
                         Standard orientation:                         
 ---------------------------------------------------------------------
 Center     Atomic      Atomic             Coordinates (Angstroms)
 Number     Number       Type             X           Y           Z
 ---------------------------------------------------------------------
      1          8           0       -0.000000   -0.000000    0.094168
      2          1           0       -0.000000    0.815522   -0.376673
      3          1           0       -0.000000   -0.815522   -0.376673
 ---------------------------------------------------------------------
 Rotational constants (GHZ):        1273.4968098         376.9911917         290.8818965
 Standard basis: 6-31G(d) (6D, 7F)
 There are    10 symmetry adapted cartesian basis functions of A1  symmetry.
 There are     1 symmetry adapted cartesian basis functions of A2  symmetry.
 There are     3 symmetry adapted cartesian basis functions of B1  symmetry.
 There are     5 symmetry adapted cartesian basis functions of B2  symmetry.
 There are    10 symmetry adapted basis functions of A1  symmetry.
 There are     1 symmetry adapted basis functions of A2  symmetry.
 There are     3 symmetry adapted basis functions of B1  symmetry.
 There are     5 symmetry adapted basis functions of B2  symmetry.
    19 basis functions,    36 primitive gaussians,    19 cartesian basis functions
     5 alpha electrons        5 beta electrons
       nuclear repulsion energy         9.3156132472 Hartrees.
 NAtoms=    3 NActive=    3 NUniq=    2 SFac= 2.25D+00 NAtFMM=   60 NAOKFM=F Big=F
 Integral buffers will be    131072 words long.
 Raffenetti 1 integral format.
 Two-electron integral symmetry is turned on.
 One-electron integrals computed using PRISM.
 NBasis=    19 RedAO= T EigKep=  2.20D-02  NBF=    10     1     3     5
 NBsUse=    19 1.00D-06 EigRej= -1.00D+00 NBFU=    10     1     3     5
 Initial guess from the checkpoint file:  "/scratch/webmodemo/webmo-4350/627084/Gau-13489.chk"
 B after Tr=     0.000000    0.000000   -0.000000
         Rot=    1.000000   -0.000000    0.000000   -0.000000 Ang=   0.00 deg.
 Initial guess orbital symmetries:
       Occupied  (A1) (A1) (B2) (A1) (B1)
       Virtual   (A1) (B2) (A1) (B2) (A1) (B1) (A1) (B2) (A2) (A1)
                 (B1) (A1) (B2) (A1)
 Keep R1 ints in memory in symmetry-blocked form, NReq=845746.
 Requested convergence on RMS density matrix=1.00D-08 within 128 cycles.
 Requested convergence on MAX density matrix=1.00D-06.
 Requested convergence on             energy=1.00D-06.
 No special actions if energy rises.
 SCF Done:  E(RHF) =  -76.0052276208     A.U. after    7 cycles
            NFock=  7  Conv=0.40D-08     -V/T= 2.0020
 Calling FoFJK, ICntrl=      2127 FMM=F ISym2X=1 I1Cent= 0 IOpClX= 0 NMat=1 NMatS=1 NMatT=0.
 ***** Axes restored to original set *****
 -------------------------------------------------------------------
 Center     Atomic                   Forces (Hartrees/Bohr)
 Number     Number              X              Y              Z
 -------------------------------------------------------------------
      1        8          -0.030822397    0.000000000   -0.025863062
      2        1           0.022867248    0.000000000    0.004045757
      3        1           0.007955149   -0.000000000    0.021817305
 -------------------------------------------------------------------
 Cartesian Forces:  Max     0.030822397 RMS     0.017312412

 GradGradGradGradGradGradGradGradGradGradGradGradGradGradGradGradGradGrad
 Berny optimization.
 Using GEDIIS/GDIIS optimizer.
 FormGI is forming the generalized inverse of G from B-inverse, IUseBI=4.
 Internal  Forces:  Max     0.041324767 RMS     0.023858868
 Search for a local minimum.
 Step number   2 out of a maximum of   20 on scan point    21 out of    21
 All quantities printed in internal units (Hartrees-Bohrs-Radians)
 Mixed Optimization -- En-DIIS/RFO-DIIS
 Update second derivatives using D2CorX and points    2
 DE= -2.85D-07 DEPred=-2.94D-07 R= 9.69D-01
 Trust test= 9.69D-01 RLast= 9.88D-04 DXMaxT set to 5.05D-01
 The second derivative matrix:
                          R1        R2        A1
           R1           0.50089
           R2           0.10213   0.50089
           A1           0.02922   0.02922   0.16283
 ITU=  0  0
 Use linear search instead of GDIIS.
     Eigenvalues ---    0.39877   0.603021000.00000
 RFO step:  Lambda= 0.00000000D+00 EMin= 3.98766852D-01
 Quartic linear search produced a step of -0.03088.
 Iteration  1 RMS(Cart)=  0.00001608 RMS(Int)=  0.00000000
 Iteration  2 RMS(Cart)=  0.00000000 RMS(Int)=  0.00000000
 Iteration  1 RMS(Cart)=  0.00000000 RMS(Int)=  0.00000000
 ClnCor:  largest displacement from symmetrization is 1.99D-14 for atom     3.
 Variable       Old X    -DE/DX   Delta X   Delta X   Delta X     New X
                                 (Linear)    (Quad)   (Total)
    R1        1.77952   0.00001   0.00002  -0.00000   0.00002   1.77954
    R2        1.77952   0.00001   0.00002   0.00000   0.00002   1.77954
    A1        2.09440  -0.04132   0.00000   0.00000   0.00000   2.09440
         Item               Value     Threshold  Converged?
 Maximum Force            0.000013     0.000450     YES
 RMS     Force            0.000013     0.000300     YES
 Maximum Displacement     0.000017     0.001800     YES
 RMS     Displacement     0.000016     0.001200     YES
 Predicted change in Energy=-2.991224D-10
 Optimization completed.
    -- Stationary point found.
                           ----------------------------
                           !   Optimized Parameters   !
                           ! (Angstroms and Degrees)  !
 --------------------------                            --------------------------
 ! Name  Definition              Value          Derivative Info.                !
 --------------------------------------------------------------------------------
 ! R1    R(1,2)                  0.9417         -DE/DX =    0.0                 !
 ! R2    R(1,3)                  0.9417         -DE/DX =    0.0                 !
 ! A1    A(2,1,3)              120.0            -DE/DX =   -0.0413              !
 --------------------------------------------------------------------------------
 Summary of Optimized Potential Surface Scan (add -76.0 to energies):
                           1         2         3         4         5
     Eigenvalues --    -0.00985  -0.01015  -0.01039  -0.01056  -0.01068
           R1           0.94978   0.94918   0.94889   0.94843   0.94798
           R2           0.94978   0.94918   0.94889   0.94843   0.94798
           A1         100.00000 101.00000 102.00000 103.00000 104.00000
                           6         7         8         9        10
     Eigenvalues --    -0.01074  -0.01074  -0.01068  -0.01057  -0.01040
           R1           0.94754   0.94710   0.94667   0.94626   0.94585
           R2           0.94754   0.94710   0.94667   0.94626   0.94585
           A1         105.00000 106.00000 107.00000 108.00000 109.00000
                          11        12        13        14        15
     Eigenvalues --    -0.01018  -0.00990  -0.00958  -0.00920  -0.00877
           R1           0.94544   0.94504   0.94465   0.94427   0.94388
           R2           0.94544   0.94504   0.94465   0.94427   0.94388
           A1         110.00000 111.00000 112.00000 113.00000 114.00000
                          16        17        18        19        20
     Eigenvalues --    -0.00829  -0.00777  -0.00720  -0.00659  -0.00593
           R1           0.94351   0.94314   0.94277   0.94240   0.94204
           R2           0.94351   0.94314   0.94277   0.94240   0.94204
           A1         115.00000 116.00000 117.00000 118.00000 119.00000
                          21
     Eigenvalues --    -0.00523
           R1           0.94168
           R2           0.94168
           A1         120.00000
 GradGradGradGradGradGradGradGradGradGradGradGradGradGradGradGradGradGrad

                          Input orientation:                          
 ---------------------------------------------------------------------
 Center     Atomic      Atomic             Coordinates (Angstroms)
 Number     Number       Type             X           Y           Z
 ---------------------------------------------------------------------
      1          8           0        0.104226   -0.000000    0.087456
      2          1           0       -0.059296   -0.000000    1.014833
      3          1           0        0.989118    0.000000   -0.234619
 ---------------------------------------------------------------------
                    Distance matrix (angstroms):
                    1          2          3
     1  O    0.000000
     2  H    0.941683   0.000000
     3  H    0.941683   1.631043   0.000000
 Stoichiometry    H2O
 Framework group  C2V[C2(O),SGV(H2)]
 Deg. of freedom     2
 Full point group                 C2V     NOp   4
 Largest Abelian subgroup         C2V     NOp   4
 Largest concise Abelian subgroup C2      NOp   2
                         Standard orientation:                         
 ---------------------------------------------------------------------
 Center     Atomic      Atomic             Coordinates (Angstroms)
 Number     Number       Type             X           Y           Z
 ---------------------------------------------------------------------
      1          8           0        0.000000    0.000000    0.094168
      2          1           0       -0.000000    0.815522   -0.376673
      3          1           0       -0.000000   -0.815522   -0.376673
 ---------------------------------------------------------------------
 Rotational constants (GHZ):        1273.4968098         376.9911917         290.8818965

 **********************************************************************

            Population analysis using the SCF Density.

 **********************************************************************

 Orbital symmetries:
       Occupied  (A1) (A1) (B2) (A1) (B1)
       Virtual   (A1) (B2) (A1) (B2) (A1) (B1) (A1) (B2) (A2) (A1)
                 (B1) (A1) (B2) (A1)
 The electronic state is 1-A1.
 Alpha  occ. eigenvalues --  -20.54770  -1.33688  -0.74166  -0.54224  -0.49229
 Alpha virt. eigenvalues --    0.21444   0.30875   1.07290   1.11958   1.16373
 Alpha virt. eigenvalues --    1.17241   1.39606   1.40121   2.01793   2.06102
 Alpha virt. eigenvalues --    2.08321   2.70050   2.92523   4.00580
          Condensed to atoms (all electrons):
               1          2          3
     1  O    8.362481   0.269057   0.269057
     2  H    0.269057   0.293695  -0.013050
     3  H    0.269057  -0.013050   0.293695
 Mulliken charges:
               1
     1  O   -0.900595
     2  H    0.450297
     3  H    0.450297
 Sum of Mulliken charges =   0.00000
 Mulliken charges with hydrogens summed into heavy atoms:
               1
     1  O    0.000000
 Electronic spatial extent (au):  <R**2>=             18.6855
 Charge=              0.0000 electrons
 Dipole moment (field-independent basis, Debye):
    X=             -0.0000    Y=              0.0000    Z=             -1.9182  Tot=              1.9182
 Quadrupole moment (field-independent basis, Debye-Ang):
   XX=             -7.1958   YY=             -3.4774   ZZ=             -6.3667
   XY=              0.0000   XZ=              0.0000   YZ=             -0.0000
 Traceless Quadrupole moment (field-independent basis, Debye-Ang):
   XX=             -1.5158   YY=              2.2025   ZZ=             -0.6868
   XY=              0.0000   XZ=              0.0000   YZ=             -0.0000
 Octapole moment (field-independent basis, Debye-Ang**2):
  XXX=              0.0000  YYY=              0.0000  ZZZ=             -1.1450  XYY=             -0.0000
  XXY=              0.0000  XXZ=             -0.3377  XZZ=              0.0000  YZZ=              0.0000
  YYZ=             -1.3204  XYZ=             -0.0000
 Hexadecapole moment (field-independent basis, Debye-Ang**3):
 XXXX=             -5.1781 YYYY=             -4.7475 ZZZZ=             -5.7575 XXXY=             -0.0000
 XXXZ=             -0.0000 YYYX=              0.0000 YYYZ=             -0.0000 ZZZX=             -0.0000
 ZZZY=             -0.0000 XXYY=             -2.0300 XXZZ=             -1.8441 YYZZ=             -1.6518
 XXYZ=             -0.0000 YYXZ=              0.0000 ZZXY=              0.0000
 N-N= 9.315613247206D+00 E-N=-1.991752745682D+02  KE= 7.585513499506D+01
 Symmetry A1   KE= 6.780487005995D+01
 Symmetry A2   KE= 1.071993303398D-34
 Symmetry B1   KE= 4.529406464939D+00
 Symmetry B2   KE= 3.520858470171D+00
 B after Tr=    -0.137871    0.000000   -0.115687
         Rot=    1.000000    0.000000   -0.000000    0.000000 Ang=   0.00 deg.
 Final structure in terms of initial Z-matrix:
 O
 H,1,B1
 H,1,B2,2,A1
      Variables:
 B1=0.94168314
 B2=0.94168314
 A1=120.
 1\1\GINC-BUCHNER\Scan\RHF\6-31G(d)\H2O1\WEBMODEMO\07-Apr-2020\0\\#N HF
 /6-31G(d) OPT(AddRedundant) Geom=Connectivity\\H2O\\0,1\O,0.1042256668
 ,0.,0.0874557185\H,-0.0592958953,0.,1.0148325806\H,0.9891183692,0.,-0.
 2346188857\\Version=ES64L-G16RevB.01\State=1-A1\HF=-76.0098515,-76.010
 1503,-76.0103877,-76.0105644,-76.0106813,-76.0107393,-76.0107393,-76.0
 106823,-76.0105692,-76.0104011,-76.0101788,-76.0099036,-76.0095764,-76
 .0091984,-76.0087707,-76.0082944,-76.0077708,-76.0072011,-76.0065864,-
 76.0059282,-76.0052276\RMSD=7.776e-09,5.851e-09,4.112e-09,4.030e-09,3.
 955e-09,3.890e-09,3.844e-09,3.805e-09,3.775e-09,3.753e-09,3.739e-09,3.
 733e-09,3.735e-09,3.745e-09,3.762e-09,3.787e-09,3.819e-09,3.860e-09,3.
 908e-09,3.964e-09,4.029e-09\PG=C02V [C2(O1),SGV(H2)]\\@


 THE MORE POWERFUL THE METHOD, THE MORE CATASTROPHIC THE ERRORS.
     -- M.D. KAMEN
 Job cpu time:       0 days  0 hours  0 minutes 41.1 seconds.
 Elapsed time:       0 days  0 hours  0 minutes 37.6 seconds.
 File lengths (MBytes):  RWF=      6 Int=      0 D2E=      0 Chk=      2 Scr=      1
 Normal termination of Gaussian 16 at Tue Apr  7 17:23:14 2020.
