===============================================
Execution sur noeud     : dnas-node18.univ-pau.fr
Job id = 320660
Fichiers temporaire sur :  /scratch/320660
===============================================
Debut execution du job  : ven. sept. 18 17:39:29 CEST 2015
 Entering Gaussian System, Link 0=g09
 Initial command:
 /opt/g09-d01/g09/l1.exe "/scratch/320660/Gau-10444.inp" -scrdir="/scratch/320660/"
 Entering Link 1 = /opt/g09-d01/g09/l1.exe PID=     10445.
  
 Copyright (c) 1988,1990,1992,1993,1995,1998,2003,2009,2013,
            Gaussian, Inc.  All Rights Reserved.
  
 This is part of the Gaussian(R) 09 program.  It is based on
 the Gaussian(R) 03 system (copyright 2003, Gaussian, Inc.),
 the Gaussian(R) 98 system (copyright 1998, Gaussian, Inc.),
 the Gaussian(R) 94 system (copyright 1995, Gaussian, Inc.),
 the Gaussian 92(TM) system (copyright 1992, Gaussian, Inc.),
 the Gaussian 90(TM) system (copyright 1990, Gaussian, Inc.),
 the Gaussian 88(TM) system (copyright 1988, Gaussian, Inc.),
 the Gaussian 86(TM) system (copyright 1986, Carnegie Mellon
 University), and the Gaussian 82(TM) system (copyright 1983,
 Carnegie Mellon University). Gaussian is a federally registered
 trademark of Gaussian, Inc.
  
 This software contains proprietary and confidential information,
 including trade secrets, belonging to Gaussian, Inc.
  
 This software is provided under written license and may be
 used, copied, transmitted, or stored only in accord with that
 written license.
  
 The following legend is applicable only to US Government
 contracts under FAR:
  
                    RESTRICTED RIGHTS LEGEND
  
 Use, reproduction and disclosure by the US Government is
 subject to restrictions as set forth in subparagraphs (a)
 and (c) of the Commercial Computer Software - Restricted
 Rights clause in FAR 52.227-19.
  
 Gaussian, Inc.
 340 Quinnipiac St., Bldg. 40, Wallingford CT 06492
  
  
 ---------------------------------------------------------------
 Warning -- This program may not be used in any manner that
 competes with the business of Gaussian, Inc. or will provide
 assistance to any competitor of Gaussian, Inc.  The licensee
 of this program is prohibited from giving any competitor of
 Gaussian, Inc. access to this program.  By using this program,
 the user acknowledges that Gaussian, Inc. is engaged in the
 business of creating and licensing software in the field of
 computational chemistry and represents and warrants to the
 licensee that it is not a competitor of Gaussian, Inc. and that
 it will not use this program in any manner prohibited above.
 ---------------------------------------------------------------
  

 Cite this work as:
 Gaussian 09, Revision D.01,
 M. J. Frisch, G. W. Trucks, H. B. Schlegel, G. E. Scuseria, 
 M. A. Robb, J. R. Cheeseman, G. Scalmani, V. Barone, B. Mennucci, 
 G. A. Petersson, H. Nakatsuji, M. Caricato, X. Li, H. P. Hratchian, 
 A. F. Izmaylov, J. Bloino, G. Zheng, J. L. Sonnenberg, M. Hada, 
 M. Ehara, K. Toyota, R. Fukuda, J. Hasegawa, M. Ishida, T. Nakajima, 
 Y. Honda, O. Kitao, H. Nakai, T. Vreven, J. A. Montgomery, Jr., 
 J. E. Peralta, F. Ogliaro, M. Bearpark, J. J. Heyd, E. Brothers, 
 K. N. Kudin, V. N. Staroverov, T. Keith, R. Kobayashi, J. Normand, 
 K. Raghavachari, A. Rendell, J. C. Burant, S. S. Iyengar, J. Tomasi, 
 M. Cossi, N. Rega, J. M. Millam, M. Klene, J. E. Knox, J. B. Cross, 
 V. Bakken, C. Adamo, J. Jaramillo, R. Gomperts, R. E. Stratmann, 
 O. Yazyev, A. J. Austin, R. Cammi, C. Pomelli, J. W. Ochterski, 
 R. L. Martin, K. Morokuma, V. G. Zakrzewski, G. A. Voth, 
 P. Salvador, J. J. Dannenberg, S. Dapprich, A. D. Daniels, 
 O. Farkas, J. B. Foresman, J. V. Ortiz, J. Cioslowski, 
 and D. J. Fox, Gaussian, Inc., Wallingford CT, 2013.
 
 ******************************************
 Gaussian 09:  EM64L-G09RevD.01 24-Apr-2013
                18-Sep-2015 
 ******************************************
 %NProc=1
 Will use up to    1 processors via shared memory.
 ------------------------------
 # B3LYP/6-31G* 5d opt=z-matrix
 ------------------------------
 1/10=7,14=-1,18=40,26=3,38=1/1,3;
 2/12=2,17=6,18=5,29=3,40=1/2;
 3/5=1,6=6,7=1,8=1,11=2,16=1,25=1,30=1,71=1,74=-5/1,2,3;
 4//1;
 5/5=2,38=5/2;
 6/7=2,8=2,9=2,10=2,28=1/1;
 7/29=1/1,2,3,16;
 1/10=7,14=-1,18=40,26=3/3(2);
 2/29=3/2;
 99//99;
 2/29=3/2;
 3/5=1,6=6,7=1,8=1,11=2,16=1,25=1,30=1,71=1,74=-5/1,2,3;
 4/5=5,16=3,69=1/1;
 5/5=2,38=5/2;
 7//1,2,3,16;
 1/14=-1,18=40,26=3/3(-5);
 2/29=3/2;
 6/7=2,8=2,9=2,10=2,19=2,28=1/1;
 99/9=1/99;
 ------------
 SO2 molecule
 ------------
 Symbolic Z-matrix:
 Charge =  0 Multiplicity = 1
 S
 O                    1    DSO
 O                    1    DSO      2    ASO
       Variables:
  DSO                   1.     Scan 20    0.1    
  ASO                 119.4                      
 

 GradGradGradGradGradGradGradGradGradGradGradGradGradGradGradGradGradGrad
 Berny optimization.
 Initialization pass.
                       ----------------------------
                       !    Initial Parameters    !
                       ! (Angstroms and Degrees)  !
 ----------------------                            ----------------------
 !      Name          Value   Derivative information (Atomic Units)     !
 ------------------------------------------------------------------------
 !       DSO         1.0      Scan                                      !
 !       ASO       119.4      estimate D2E/DX2                          !
 ------------------------------------------------------------------------
 Trust Radius=3.00D-01 FncErr=1.00D-07 GrdErr=1.00D-06
 Number of optimizations in scan=  21
 Number of steps in this run=     20 maximum allowed number of steps=    100.
 GradGradGradGradGradGradGradGradGradGradGradGradGradGradGradGradGradGrad

 ---------------------------------------------------------------------------------------------------
                            Z-MATRIX (ANGSTROMS AND DEGREES)
   CD    Cent   Atom    N1       Length/X        N2       Alpha/Y        N3        Beta/Z          J
 ---------------------------------------------------------------------------------------------------
      1      1  S 
      2      2  O        1   1.000000(     1)
      3      3  O        1   1.000000(     2)      2  119.400(     3)
 ---------------------------------------------------------------------------------------------------
                         Z-Matrix orientation:                         
 ---------------------------------------------------------------------
 Center     Atomic      Atomic             Coordinates (Angstroms)
 Number     Number       Type             X           Y           Z
 ---------------------------------------------------------------------
      1         16           0        0.000000    0.000000    0.000000
      2          8           0        0.000000    0.000000    1.000000
      3          8           0        0.871214    0.000000   -0.490904
 ---------------------------------------------------------------------
                    Distance matrix (angstroms):
                    1          2          3
     1  S    0.000000
     2  O    1.000000   0.000000
     3  O    1.000000   1.726791   0.000000
 Stoichiometry    O2S
 Framework group  C2V[C2(S),SGV(O2)]
 Deg. of freedom     2
 Full point group                 C2V     NOp   4
 Largest Abelian subgroup         C2V     NOp   4
 Largest concise Abelian subgroup C2      NOp   2
                         Standard orientation:                         
 ---------------------------------------------------------------------
 Center     Atomic      Atomic             Coordinates (Angstroms)
 Number     Number       Type             X           Y           Z
 ---------------------------------------------------------------------
      1         16           0        0.000000    0.000000    0.252264
      2          8           0        0.000000    0.863396   -0.252264
      3          8           0        0.000000   -0.863396   -0.252264
 ---------------------------------------------------------------------
 Rotational constants (GHZ):    124.1612162     21.1926693     18.1027675
 Standard basis: 6-31G(d) (5D, 7F)
 There are    21 symmetry adapted cartesian basis functions of A1  symmetry.
 There are     5 symmetry adapted cartesian basis functions of A2  symmetry.
 There are     8 symmetry adapted cartesian basis functions of B1  symmetry.
 There are    15 symmetry adapted cartesian basis functions of B2  symmetry.
 There are    19 symmetry adapted basis functions of A1  symmetry.
 There are     5 symmetry adapted basis functions of A2  symmetry.
 There are     8 symmetry adapted basis functions of B1  symmetry.
 There are    14 symmetry adapted basis functions of B2  symmetry.
    46 basis functions,   108 primitive gaussians,    49 cartesian basis functions
    16 alpha electrons       16 beta electrons
       nuclear repulsion energy       155.0822423278 Hartrees.
 NAtoms=    3 NActive=    3 NUniq=    2 SFac= 2.25D+00 NAtFMM=   60 NAOKFM=F Big=F
 Integral buffers will be    131072 words long.
 Raffenetti 2 integral format.
 Two-electron integral symmetry is turned on.
 One-electron integrals computed using PRISM.
 NBasis=    46 RedAO= T EigKep=  9.83D-03  NBF=    19     5     8    14
 NBsUse=    46 1.00D-06 EigRej= -1.00D+00 NBFU=    19     5     8    14
 ExpMin= 1.17D-01 ExpMax= 2.19D+04 ExpMxC= 3.30D+03 IAcc=1 IRadAn=         1 AccDes= 0.00D+00
 Harris functional with IExCor=  402 and IRadAn=       1 diagonalized for initial guess.
 HarFok:  IExCor=  402 AccDes= 0.00D+00 IRadAn=         1 IDoV= 1 UseB2=F ITyADJ=14
 ICtDFT=  3500011 ScaDFX=  1.000000  1.000000  1.000000  1.000000
 FoFCou: FMM=F IPFlag=           0 FMFlag=      100000 FMFlg1=           0
         NFxFlg=           0 DoJE=T BraDBF=F KetDBF=T FulRan=T
         wScrn=  0.000000 ICntrl=     500 IOpCl=  0 I1Cent=   200000004 NGrid=           0
         NMat0=    1 NMatS0=      1 NMatT0=    0 NMatD0=    1 NMtDS0=    0 NMtDT0=    0
 Petite list used in FoFCou.
 Initial guess orbital symmetries:
       Occupied  (A1) (B2) (A1) (A1) (B2) (A1) (B1) (A1) (B2) (A1)
                 (B1) (A2) (A1) (B2) (B2) (A1)
       Virtual   (B1) (A1) (B2) (A1) (B1) (A1) (B2) (A1) (B1) (B2)
                 (A2) (A1) (B1) (A1) (A2) (B2) (A1) (B2) (A1) (B2)
                 (B1) (A2) (A1) (B2) (B1) (B2) (A2) (A1) (A1) (B2)
 The electronic state of the initial guess is 1-A1.
 Keep R1 ints in memory in symmetry-blocked form, NReq=1483476.
 Requested convergence on RMS density matrix=1.00D-08 within 128 cycles.
 Requested convergence on MAX density matrix=1.00D-06.
 Requested convergence on             energy=1.00D-06.
 No special actions if energy rises.
 Integral accuracy reduced to 1.0D-05 until final iterations.
 Initial convergence to 1.0D-05 achieved.  Increase integral accuracy.
 SCF Done:  E(RB3LYP) =  -547.050773534     A.U. after   12 cycles
            NFock= 12  Conv=0.12D-08     -V/T= 1.9840

 **********************************************************************

            Population analysis using the SCF density.

 **********************************************************************

 Orbital symmetries:
       Occupied  (A1) (B2) (A1) (A1) (B2) (A1) (B1) (A1) (B2) (B1)
                 (A1) (A1) (B2) (A2) (B2) (A1)
       Virtual   (B1) (A1) (B2) (A1) (B1) (A1) (B2) (A1) (B2) (A2)
                 (B1) (A1) (B1) (A2) (B2) (A1) (A1) (B2) (A1) (B2)
                 (B1) (A2) (A1) (B2) (B1) (B2) (A2) (A1) (A1) (B2)
 The electronic state is 1-A1.
 Alpha  occ. eigenvalues --  -88.90450 -19.12781 -19.12776  -8.08178  -6.05659
 Alpha  occ. eigenvalues --   -6.02247  -6.01725  -1.39828  -1.20611  -0.68333
 Alpha  occ. eigenvalues --   -0.67903  -0.52855  -0.49322  -0.49164  -0.42449
 Alpha  occ. eigenvalues --   -0.28265
 Alpha virt. eigenvalues --    0.03562   0.13954   0.18510   0.29726   0.30765
 Alpha virt. eigenvalues --    0.51789   0.59627   0.74121   0.76588   0.77983
 Alpha virt. eigenvalues --    0.79200   0.84553   0.94949   1.03871   1.04930
 Alpha virt. eigenvalues --    1.06394   1.41109   1.44365   1.73845   1.75071
 Alpha virt. eigenvalues --    1.75879   1.80210   2.25798   2.37513   2.47287
 Alpha virt. eigenvalues --    2.49227   2.50253   2.75591   2.96190   3.30258
          Condensed to atoms (all electrons):
               1          2          3
     1  S   14.931698   0.359666   0.359666
     2  O    0.359666   8.008034  -0.193214
     3  O    0.359666  -0.193214   8.008034
 Mulliken charges:
               1
     1  S    0.348971
     2  O   -0.174485
     3  O   -0.174485
 Sum of Mulliken charges =   0.00000
 Mulliken charges with hydrogens summed into heavy atoms:
               1
     1  S    0.348971
     2  O   -0.174485
     3  O   -0.174485
 Electronic spatial extent (au):  <R**2>=             97.0600
 Charge=              0.0000 electrons
 Dipole moment (field-independent basis, Debye):
    X=              0.0000    Y=              0.0000    Z=             -0.0175  Tot=              0.0175
 Quadrupole moment (field-independent basis, Debye-Ang):
   XX=            -18.7393   YY=            -22.9525   ZZ=            -21.7870
   XY=              0.0000   XZ=              0.0000   YZ=              0.0000
 Traceless Quadrupole moment (field-independent basis, Debye-Ang):
   XX=              2.4203   YY=             -1.7929   ZZ=             -0.6274
   XY=              0.0000   XZ=              0.0000   YZ=              0.0000
 Octapole moment (field-independent basis, Debye-Ang**2):
  XXX=              0.0000  YYY=              0.0000  ZZZ=             -4.4271  XYY=              0.0000
  XXY=              0.0000  XXZ=             -0.9971  XZZ=              0.0000  YZZ=              0.0000
  YYZ=              0.5757  XYZ=              0.0000
 Hexadecapole moment (field-independent basis, Debye-Ang**3):
 XXXX=            -15.6041 YYYY=            -65.6193 ZZZZ=            -31.4573 XXXY=              0.0000
 XXXZ=              0.0000 YYYX=              0.0000 YYYZ=              0.0000 ZZZX=              0.0000
 ZZZY=              0.0000 XXYY=            -12.7561 XXZZ=             -7.6713 YYZZ=            -15.5203
 XXYZ=              0.0000 YYXZ=              0.0000 ZZXY=              0.0000
 N-N= 1.550822423278D+02 E-N=-1.615805356533D+03  KE= 5.559615052081D+02
 Symmetry A1   KE= 3.968733952101D+02
 Symmetry A2   KE= 5.120110580307D+00
 Symmetry B1   KE= 3.989093327995D+01
 Symmetry B2   KE= 1.140770661377D+02
 Calling FoFJK, ICntrl=      2127 FMM=F ISym2X=1 I1Cent= 0 IOpClX= 0 NMat=1 NMatS=1 NMatT=0.
 ***** Axes restored to original set *****
 -------------------------------------------------------------------
 Center     Atomic                   Forces (Hartrees/Bohr)
 Number     Number              X              Y              Z
 -------------------------------------------------------------------
      1       16          -2.386863492    0.000000000   -1.394770410
      2        8          -0.092178206    0.000000000    2.897442962
      3        8           2.479041698    0.000000000   -1.502672552
 -------------------------------------------------------------------
 Cartesian Forces:  Max     2.897442962 RMS     1.648226215
 -----------------------------------------------------------------------------------------------
                       Internal Coordinate Forces (Hartree/Bohr or radian)
  Cent   Atom   N1       Length/X         N2         Alpha/Y        N3         Beta/Z          J
 -----------------------------------------------------------------------------------------------
      1  S 
      2  O        1   2.897443(     1)
      3  O        1   2.897443(     2)      2   0.174192(     3)
 -----------------------------------------------------------------------------------------------
 Internal  Forces:  Max     2.897442962 RMS     2.367888943

 GradGradGradGradGradGradGradGradGradGradGradGradGradGradGradGradGradGrad
 Berny optimization.
 Search for a local minimum.
 Step number   1 out of a maximum of   20 on scan point     1 out of    21
 All quantities printed in internal units (Hartrees-Bohrs-Radians)
 Second derivative matrix not updated -- first step.
 The second derivative matrix:
                          DSO       ASO
           DSO         35.18033
           ASO          0.27625   0.52753
 ITU=  0
     Eigenvalues ---    0.527531000.00000
 RFO step:  Lambda=-5.23280998D-02 EMin= 5.27526757D-01
 Linear search not attempted -- first point.
 Maximum step size (   0.300) exceeded in Quadratic search.
    -- Step size scaled by   0.999
 Variable       Old X    -DE/DX   Delta X   Delta X   Delta X     New X
                                 (Linear)    (Quad)   (Total)
   DSO        1.88973   5.79489   0.00000   0.00000   0.00000   1.88973
   ASO        2.08392   0.17419   0.00000   0.30000   0.30000   2.38392
         Item               Value     Threshold  Converged?
 Maximum Force            0.174192     0.000450     NO 
 RMS     Force            0.174192     0.000300     NO 
 Maximum Displacement     0.300000     0.001800     NO 
 RMS     Displacement     0.212132     0.001200     NO 
 Predicted change in Energy=-2.851877D-02
 GradGradGradGradGradGradGradGradGradGradGradGradGradGradGradGradGradGrad

 ---------------------------------------------------------------------------------------------------
                            Z-MATRIX (ANGSTROMS AND DEGREES)
   CD    Cent   Atom    N1       Length/X        N2       Alpha/Y        N3        Beta/Z          J
 ---------------------------------------------------------------------------------------------------
      1      1  S 
      2      2  O        1   1.000000(     1)
      3      3  O        1   1.000000(     2)      2  136.589(     3)
 ---------------------------------------------------------------------------------------------------
                         Z-Matrix orientation:                         
 ---------------------------------------------------------------------
 Center     Atomic      Atomic             Coordinates (Angstroms)
 Number     Number       Type             X           Y           Z
 ---------------------------------------------------------------------
      1         16           0        0.000000    0.000000    0.000000
      2          8           0        0.000000    0.000000    1.000000
      3          8           0        0.687230    0.000000   -0.726440
 ---------------------------------------------------------------------
                    Distance matrix (angstroms):
                    1          2          3
     1  S    0.000000
     2  O    1.000000   0.000000
     3  O    1.000000   1.858192   0.000000
 Stoichiometry    O2S
 Framework group  C2V[C2(S),SGV(O2)]
 Deg. of freedom     2
 Full point group                 C2V     NOp   4
 Largest Abelian subgroup         C2V     NOp   4
 Largest concise Abelian subgroup C2      NOp   2
                         Standard orientation:                         
 ---------------------------------------------------------------------
 Center     Atomic      Atomic             Coordinates (Angstroms)
 Number     Number       Type             X           Y           Z
 ---------------------------------------------------------------------
      1         16           0        0.000000    0.000000    0.184919
      2          8           0        0.000000    0.929096   -0.184919
      3          8           0        0.000000   -0.929096   -0.184919
 ---------------------------------------------------------------------
 Rotational constants (GHZ):    231.0641398     18.3013822     16.9582110
 Standard basis: 6-31G(d) (5D, 7F)
 There are    21 symmetry adapted cartesian basis functions of A1  symmetry.
 There are     5 symmetry adapted cartesian basis functions of A2  symmetry.
 There are     8 symmetry adapted cartesian basis functions of B1  symmetry.
 There are    15 symmetry adapted cartesian basis functions of B2  symmetry.
 There are    19 symmetry adapted basis functions of A1  symmetry.
 There are     5 symmetry adapted basis functions of A2  symmetry.
 There are     8 symmetry adapted basis functions of B1  symmetry.
 There are    14 symmetry adapted basis functions of B2  symmetry.
    46 basis functions,   108 primitive gaussians,    49 cartesian basis functions
    16 alpha electrons       16 beta electrons
       nuclear repulsion energy       153.6953256375 Hartrees.
 NAtoms=    3 NActive=    3 NUniq=    2 SFac= 2.25D+00 NAtFMM=   60 NAOKFM=F Big=F
 Integral buffers will be    131072 words long.
 Raffenetti 2 integral format.
 Two-electron integral symmetry is turned on.
 One-electron integrals computed using PRISM.
 NBasis=    46 RedAO= T EigKep=  9.42D-03  NBF=    19     5     8    14
 NBsUse=    46 1.00D-06 EigRej= -1.00D+00 NBFU=    19     5     8    14
 Initial guess from the checkpoint file:  "/scratch/320660/Gau-10445.chk"
 B after Tr=     0.000000    0.000000    0.000000
         Rot=    1.000000    0.000000    0.000000    0.000000 Ang=   0.00 deg.
 Initial guess orbital symmetries:
       Occupied  (A1) (B2) (A1) (A1) (B2) (A1) (B1) (A1) (B2) (B1)
                 (A1) (A1) (B2) (A2) (B2) (A1)
       Virtual   (A1) (A1) (A1) (A1) (A1) (A1) (A1) (A1) (A1) (A1)
                 (A1) (A2) (A2) (A2) (A2) (B1) (B1) (B1) (B1) (B1)
                 (B1) (B2) (B2) (B2) (B2) (B2) (B2) (B2) (B2) (B2)
 ExpMin= 1.17D-01 ExpMax= 2.19D+04 ExpMxC= 3.30D+03 IAcc=1 IRadAn=         1 AccDes= 0.00D+00
 Harris functional with IExCor=  402 and IRadAn=       1 diagonalized for initial guess.
 HarFok:  IExCor=  402 AccDes= 0.00D+00 IRadAn=         1 IDoV= 1 UseB2=F ITyADJ=14
 ICtDFT=  3500011 ScaDFX=  1.000000  1.000000  1.000000  1.000000
 FoFCou: FMM=F IPFlag=           0 FMFlag=      100000 FMFlg1=           0
         NFxFlg=           0 DoJE=T BraDBF=F KetDBF=T FulRan=T
         wScrn=  0.000000 ICntrl=     500 IOpCl=  0 I1Cent=   200000004 NGrid=           0
         NMat0=    1 NMatS0=      1 NMatT0=    0 NMatD0=    1 NMtDS0=    0 NMtDT0=    0
 Petite list used in FoFCou.
 Keep R1 ints in memory in symmetry-blocked form, NReq=1483476.
 Requested convergence on RMS density matrix=1.00D-08 within 128 cycles.
 Requested convergence on MAX density matrix=1.00D-06.
 Requested convergence on             energy=1.00D-06.
 No special actions if energy rises.
 Integral accuracy reduced to 1.0D-05 until final iterations.
 Initial convergence to 1.0D-05 achieved.  Increase integral accuracy.
 SCF Done:  E(RB3LYP) =  -547.063875579     A.U. after   12 cycles
            NFock= 12  Conv=0.19D-08     -V/T= 1.9844
 Calling FoFJK, ICntrl=      2127 FMM=F ISym2X=1 I1Cent= 0 IOpClX= 0 NMat=1 NMatS=1 NMatT=0.
 ***** Axes restored to original set *****
 -------------------------------------------------------------------
 Center     Atomic                   Forces (Hartrees/Bohr)
 Number     Number              X              Y              Z
 -------------------------------------------------------------------
      1       16          -2.016418339    0.000000000   -0.802659964
      2        8           0.033259907    0.000000000    2.850568338
      3        8           1.983158431    0.000000000   -2.047908374
 -------------------------------------------------------------------
 Cartesian Forces:  Max     2.850568338 RMS     1.526211653
 -----------------------------------------------------------------------------------------------
                       Internal Coordinate Forces (Hartree/Bohr or radian)
  Cent   Atom   N1       Length/X         N2         Alpha/Y        N3         Beta/Z          J
 -----------------------------------------------------------------------------------------------
      1  S 
      2  O        1   2.850568(     1)
      3  O        1   2.850568(     2)      2  -0.062852(     3)
 -----------------------------------------------------------------------------------------------
 Internal  Forces:  Max     2.850568338 RMS     2.327762165

 GradGradGradGradGradGradGradGradGradGradGradGradGradGradGradGradGradGrad
 Berny optimization.
 Search for a local minimum.
 Step number   2 out of a maximum of   20 on scan point     1 out of    21
 All quantities printed in internal units (Hartrees-Bohrs-Radians)
 Update second derivatives using D2CorN and points    1    2
 DE= -1.31D-02 DEPred=-2.85D-02 R= 4.59D-01
 Trust test= 4.59D-01 RLast= 3.00D-01 DXMaxT set to 3.00D-01
 The second derivative matrix:
                          DSO       ASO
           DSO         35.18033
           ASO          0.29437   0.79015
 ITU=  0  0
     Eigenvalues ---    0.790151000.00000
 RFO step:  Lambda=-9.64422877D-07 EMin= 7.90145602D-01
 Quartic linear search produced a step of -0.33126.
 Variable       Old X    -DE/DX   Delta X   Delta X   Delta X     New X
                                 (Linear)    (Quad)   (Total)
   DSO        1.88973   5.70114   0.00000   0.00000   0.00000   1.88973
   ASO        2.38392  -0.06285  -0.09938   0.00000  -0.09938   2.28455
         Item               Value     Threshold  Converged?
 Maximum Force            0.062852     0.000450     NO 
 RMS     Force            0.062852     0.000300     NO 
 Maximum Displacement     0.099377     0.001800     NO 
 RMS     Displacement     0.070270     0.001200     NO 
 Predicted change in Energy=-2.344395D-03
 GradGradGradGradGradGradGradGradGradGradGradGradGradGradGradGradGradGrad

 ---------------------------------------------------------------------------------------------------
                            Z-MATRIX (ANGSTROMS AND DEGREES)
   CD    Cent   Atom    N1       Length/X        N2       Alpha/Y        N3        Beta/Z          J
 ---------------------------------------------------------------------------------------------------
      1      1  S 
      2      2  O        1   1.000000(     1)
      3      3  O        1   1.000000(     2)      2  130.895(     3)
 ---------------------------------------------------------------------------------------------------
                         Z-Matrix orientation:                         
 ---------------------------------------------------------------------
 Center     Atomic      Atomic             Coordinates (Angstroms)
 Number     Number       Type             X           Y           Z
 ---------------------------------------------------------------------
      1         16           0        0.000000    0.000000    0.000000
      2          8           0        0.000000    0.000000    1.000000
      3          8           0        0.755913    0.000000   -0.654673
 ---------------------------------------------------------------------
                    Distance matrix (angstroms):
                    1          2          3
     1  S    0.000000
     2  O    1.000000   0.000000
     3  O    1.000000   1.819161   0.000000
 Stoichiometry    O2S
 Framework group  C2V[C2(S),SGV(O2)]
 Deg. of freedom     2
 Full point group                 C2V     NOp   4
 Largest Abelian subgroup         C2V     NOp   4
 Largest concise Abelian subgroup C2      NOp   2
                         Standard orientation:                         
 ---------------------------------------------------------------------
 Center     Atomic      Atomic             Coordinates (Angstroms)
 Number     Number       Type             X           Y           Z
 ---------------------------------------------------------------------
      1         16           0        0.000000    0.000000    0.207764
      2          8           0        0.000000    0.909580   -0.207764
      3          8           0        0.000000   -0.909580   -0.207764
 ---------------------------------------------------------------------
 Rotational constants (GHZ):    183.0437419     19.0951546     17.2913210
 Standard basis: 6-31G(d) (5D, 7F)
 There are    21 symmetry adapted cartesian basis functions of A1  symmetry.
 There are     5 symmetry adapted cartesian basis functions of A2  symmetry.
 There are     8 symmetry adapted cartesian basis functions of B1  symmetry.
 There are    15 symmetry adapted cartesian basis functions of B2  symmetry.
 There are    19 symmetry adapted basis functions of A1  symmetry.
 There are     5 symmetry adapted basis functions of A2  symmetry.
 There are     8 symmetry adapted basis functions of B1  symmetry.
 There are    14 symmetry adapted basis functions of B2  symmetry.
    46 basis functions,   108 primitive gaussians,    49 cartesian basis functions
    16 alpha electrons       16 beta electrons
       nuclear repulsion energy       154.0863809745 Hartrees.
 NAtoms=    3 NActive=    3 NUniq=    2 SFac= 2.25D+00 NAtFMM=   60 NAOKFM=F Big=F
 Integral buffers will be    131072 words long.
 Raffenetti 2 integral format.
 Two-electron integral symmetry is turned on.
 One-electron integrals computed using PRISM.
 NBasis=    46 RedAO= T EigKep=  9.57D-03  NBF=    19     5     8    14
 NBsUse=    46 1.00D-06 EigRej= -1.00D+00 NBFU=    19     5     8    14
 Initial guess from the checkpoint file:  "/scratch/320660/Gau-10445.chk"
 B after Tr=     0.000000    0.000000    0.000000
         Rot=    1.000000    0.000000    0.000000    0.000000 Ang=   0.00 deg.
 Initial guess orbital symmetries:
       Occupied  (A1) (B2) (A1) (A1) (B2) (A1) (B1) (A1) (B2) (B1)
                 (A1) (A1) (A2) (B2) (B2) (A1)
       Virtual   (A1) (A1) (A1) (A1) (A1) (A1) (A1) (A1) (A1) (A1)
                 (A1) (A2) (A2) (A2) (A2) (B1) (B1) (B1) (B1) (B1)
                 (B1) (B2) (B2) (B2) (B2) (B2) (B2) (B2) (B2) (B2)
 ExpMin= 1.17D-01 ExpMax= 2.19D+04 ExpMxC= 3.30D+03 IAcc=1 IRadAn=         1 AccDes= 0.00D+00
 Harris functional with IExCor=  402 and IRadAn=       1 diagonalized for initial guess.
 HarFok:  IExCor=  402 AccDes= 0.00D+00 IRadAn=         1 IDoV= 1 UseB2=F ITyADJ=14
 ICtDFT=  3500011 ScaDFX=  1.000000  1.000000  1.000000  1.000000
 FoFCou: FMM=F IPFlag=           0 FMFlag=      100000 FMFlg1=           0
         NFxFlg=           0 DoJE=T BraDBF=F KetDBF=T FulRan=T
         wScrn=  0.000000 ICntrl=     500 IOpCl=  0 I1Cent=   200000004 NGrid=           0
         NMat0=    1 NMatS0=      1 NMatT0=    0 NMatD0=    1 NMtDS0=    0 NMtDT0=    0
 Petite list used in FoFCou.
 Keep R1 ints in memory in symmetry-blocked form, NReq=1483476.
 Requested convergence on RMS density matrix=1.00D-08 within 128 cycles.
 Requested convergence on MAX density matrix=1.00D-06.
 Requested convergence on             energy=1.00D-06.
 No special actions if energy rises.
 Integral accuracy reduced to 1.0D-05 until final iterations.
 Initial convergence to 1.0D-05 achieved.  Increase integral accuracy.
 SCF Done:  E(RB3LYP) =  -547.067109898     A.U. after   11 cycles
            NFock= 11  Conv=0.18D-08     -V/T= 1.9843
 Calling FoFJK, ICntrl=      2127 FMM=F ISym2X=1 I1Cent= 0 IOpClX= 0 NMat=1 NMatS=1 NMatT=0.
 ***** Axes restored to original set *****
 -------------------------------------------------------------------
 Center     Atomic                   Forces (Hartrees/Bohr)
 Number     Number              X              Y              Z
 -------------------------------------------------------------------
      1       16          -2.162720876    0.000000000   -0.988006749
      2        8          -0.000057609    0.000000000    2.861199134
      3        8           2.162778485    0.000000000   -1.873192386
 -------------------------------------------------------------------
 Cartesian Forces:  Max     2.861199134 RMS     1.564411139
 -----------------------------------------------------------------------------------------------
                       Internal Coordinate Forces (Hartree/Bohr or radian)
  Cent   Atom   N1       Length/X         N2         Alpha/Y        N3         Beta/Z          J
 -----------------------------------------------------------------------------------------------
      1  S 
      2  O        1   2.861199(     1)
      3  O        1   2.861199(     2)      2   0.000109(     3)
 -----------------------------------------------------------------------------------------------
 Internal  Forces:  Max     2.861199134 RMS     2.336159311

 GradGradGradGradGradGradGradGradGradGradGradGradGradGradGradGradGradGrad
 Berny optimization.
 Search for a local minimum.
 Step number   3 out of a maximum of   20 on scan point     1 out of    21
 All quantities printed in internal units (Hartrees-Bohrs-Radians)
 Update second derivatives using D2CorN and points    2    3
 DE= -3.23D-03 DEPred=-2.34D-03 R= 1.38D+00
 TightC=F SS=  1.41D+00  RLast= 9.94D-02 DXNew= 5.0454D-01 2.9813D-01
 Trust test= 1.38D+00 RLast= 9.94D-02 DXMaxT set to 3.00D-01
 The second derivative matrix:
                          DSO       ASO
           DSO         35.18033
           ASO          0.25416   0.63355
 ITU=  1  0  0
     Eigenvalues ---    0.633551000.00000
 RFO step:  Lambda= 0.00000000D+00 EMin= 6.33554937D-01
 Quartic linear search produced a step of -0.00155.
 Variable       Old X    -DE/DX   Delta X   Delta X   Delta X     New X
                                 (Linear)    (Quad)   (Total)
   DSO        1.88973   5.72240   0.00000   0.00000   0.00000   1.88973
   ASO        2.28455   0.00011   0.00015   0.00000   0.00015   2.28470
         Item               Value     Threshold  Converged?
 Maximum Force            0.000109     0.000450     YES
 RMS     Force            0.000109     0.000300     YES
 Maximum Displacement     0.000154     0.001800     YES
 RMS     Displacement     0.000109     0.001200     YES
 Predicted change in Energy=-9.255738D-09
 Optimization completed.
    -- Stationary point found.
                       ----------------------------
                       !   Optimized Parameters   !
                       ! (Angstroms and Degrees)  !
 ----------------------                            ----------------------
 !      Name          Value   Derivative information (Atomic Units)     !
 ------------------------------------------------------------------------
 !       DSO         1.0      -DE/DX =    5.7224                        !
 !       ASO       130.8948   -DE/DX =    0.0001                        !
 ------------------------------------------------------------------------
 GradGradGradGradGradGradGradGradGradGradGradGradGradGradGradGradGradGrad

 ---------------------------------------------------------------------------------------------------
                            Z-MATRIX (ANGSTROMS AND DEGREES)
   CD    Cent   Atom    N1       Length/X        N2       Alpha/Y        N3        Beta/Z          J
 ---------------------------------------------------------------------------------------------------
      1      1  S 
      2      2  O        1   1.100000(     1)
      3      3  O        1   1.100000(     2)      2  130.895(     3)
 ---------------------------------------------------------------------------------------------------
                         Z-Matrix orientation:                         
 ---------------------------------------------------------------------
 Center     Atomic      Atomic             Coordinates (Angstroms)
 Number     Number       Type             X           Y           Z
 ---------------------------------------------------------------------
      1         16           0        0.000000    0.000000    0.000000
      2          8           0        0.000000    0.000000    1.100000
      3          8           0        0.831504    0.000000   -0.720140
 ---------------------------------------------------------------------
                    Distance matrix (angstroms):
                    1          2          3
     1  S    0.000000
     2  O    1.100000   0.000000
     3  O    1.100000   2.001077   0.000000
 Stoichiometry    O2S
 Framework group  C2V[C2(S),SGV(O2)]
 Deg. of freedom     2
 Full point group                 C2V     NOp   4
 Largest Abelian subgroup         C2V     NOp   4
 Largest concise Abelian subgroup C2      NOp   2
                         Standard orientation:                         
 ---------------------------------------------------------------------
 Center     Atomic      Atomic             Coordinates (Angstroms)
 Number     Number       Type             X           Y           Z
 ---------------------------------------------------------------------
      1         16           0        0.000000    0.000000    0.228541
      2          8           0        0.000000    1.000538   -0.228541
      3          8           0        0.000000   -1.000538   -0.228541
 ---------------------------------------------------------------------
 Rotational constants (GHZ):    151.2758198     15.7811195     14.2903480
 Standard basis: 6-31G(d) (5D, 7F)
 There are    21 symmetry adapted cartesian basis functions of A1  symmetry.
 There are     5 symmetry adapted cartesian basis functions of A2  symmetry.
 There are     8 symmetry adapted cartesian basis functions of B1  symmetry.
 There are    15 symmetry adapted cartesian basis functions of B2  symmetry.
 There are    19 symmetry adapted basis functions of A1  symmetry.
 There are     5 symmetry adapted basis functions of A2  symmetry.
 There are     8 symmetry adapted basis functions of B1  symmetry.
 There are    14 symmetry adapted basis functions of B2  symmetry.
    46 basis functions,   108 primitive gaussians,    49 cartesian basis functions
    16 alpha electrons       16 beta electrons
       nuclear repulsion energy       140.0785281586 Hartrees.
 NAtoms=    3 NActive=    3 NUniq=    2 SFac= 2.25D+00 NAtFMM=   60 NAOKFM=F Big=F
 Integral buffers will be    131072 words long.
 Raffenetti 2 integral format.
 Two-electron integral symmetry is turned on.
 One-electron integrals computed using PRISM.
 NBasis=    46 RedAO= T EigKep=  1.24D-02  NBF=    19     5     8    14
 NBsUse=    46 1.00D-06 EigRej= -1.00D+00 NBFU=    19     5     8    14
 Initial guess from the checkpoint file:  "/scratch/320660/Gau-10445.chk"
 B after Tr=     0.000000    0.000000    0.000000
         Rot=    1.000000    0.000000    0.000000    0.000000 Ang=   0.00 deg.
 Initial guess orbital symmetries:
       Occupied  (A1) (B2) (A1) (A1) (B2) (A1) (B1) (A1) (B2) (B1)
                 (A1) (A1) (A2) (B2) (B2) (A1)
       Virtual   (A1) (A1) (A1) (A1) (A1) (A1) (A1) (A1) (A1) (A1)
                 (A1) (A2) (A2) (A2) (A2) (B1) (B1) (B1) (B1) (B1)
                 (B1) (B2) (B2) (B2) (B2) (B2) (B2) (B2) (B2) (B2)
 ExpMin= 1.17D-01 ExpMax= 2.19D+04 ExpMxC= 3.30D+03 IAcc=1 IRadAn=         1 AccDes= 0.00D+00
 Harris functional with IExCor=  402 and IRadAn=       1 diagonalized for initial guess.
 HarFok:  IExCor=  402 AccDes= 0.00D+00 IRadAn=         1 IDoV= 1 UseB2=F ITyADJ=14
 ICtDFT=  3500011 ScaDFX=  1.000000  1.000000  1.000000  1.000000
 FoFCou: FMM=F IPFlag=           0 FMFlag=      100000 FMFlg1=           0
         NFxFlg=           0 DoJE=T BraDBF=F KetDBF=T FulRan=T
         wScrn=  0.000000 ICntrl=     500 IOpCl=  0 I1Cent=   200000004 NGrid=           0
         NMat0=    1 NMatS0=      1 NMatT0=    0 NMatD0=    1 NMtDS0=    0 NMtDT0=    0
 Petite list used in FoFCou.
 Keep R1 ints in memory in symmetry-blocked form, NReq=1483476.
 Requested convergence on RMS density matrix=1.00D-08 within 128 cycles.
 Requested convergence on MAX density matrix=1.00D-06.
 Requested convergence on             energy=1.00D-06.
 No special actions if energy rises.
 Integral accuracy reduced to 1.0D-05 until final iterations.
 Initial convergence to 1.0D-05 achieved.  Increase integral accuracy.
 SCF Done:  E(RB3LYP) =  -547.872174319     A.U. after   13 cycles
            NFock= 13  Conv=0.16D-08     -V/T= 1.9925
 Calling FoFJK, ICntrl=      2127 FMM=F ISym2X=1 I1Cent= 0 IOpClX= 0 NMat=1 NMatS=1 NMatT=0.
 ***** Axes restored to original set *****
 -------------------------------------------------------------------
 Center     Atomic                   Forces (Hartrees/Bohr)
 Number     Number              X              Y              Z
 -------------------------------------------------------------------
      1       16          -1.182901886    0.000000000   -0.540391069
      2        8           0.019011675    0.000000000    1.523250089
      3        8           1.163890212    0.000000000   -0.982859020
 -------------------------------------------------------------------
 Cartesian Forces:  Max     1.523250089 RMS     0.838820861
 -----------------------------------------------------------------------------------------------
                       Internal Coordinate Forces (Hartree/Bohr or radian)
  Cent   Atom   N1       Length/X         N2         Alpha/Y        N3         Beta/Z          J
 -----------------------------------------------------------------------------------------------
      1  S 
      2  O        1   1.523250(     1)
      3  O        1   1.523250(     2)      2  -0.039520(     3)
 -----------------------------------------------------------------------------------------------
 Internal  Forces:  Max     1.523250089 RMS     1.243937761

 GradGradGradGradGradGradGradGradGradGradGradGradGradGradGradGradGradGrad
 Berny optimization.
 Search for a local minimum.
 Step number   1 out of a maximum of   20 on scan point     2 out of    21
 All quantities printed in internal units (Hartrees-Bohrs-Radians)
 Second derivative matrix not updated -- first step.
 The second derivative matrix:
                          DSO       ASO
           DSO         35.18033
           ASO          0.25416   0.63355
 ITU=  0
     Eigenvalues ---    0.633551000.00000
 RFO step:  Lambda=-2.45561094D-03 EMin= 6.33554937D-01
 Linear search not attempted -- first point.
 Variable       Old X    -DE/DX   Delta X   Delta X   Delta X     New X
                                 (Linear)    (Quad)   (Total)
   DSO        2.07870   3.04650   0.00000   0.00000   0.00000   2.07870
   ASO        2.28455  -0.03952   0.00000  -0.06214  -0.06214   2.22241
         Item               Value     Threshold  Converged?
 Maximum Force            0.039520     0.000450     NO 
 RMS     Force            0.039520     0.000300     NO 
 Maximum Displacement     0.062137     0.001800     NO 
 RMS     Displacement     0.043937     0.001200     NO 
 Predicted change in Energy=-1.232546D-03
 GradGradGradGradGradGradGradGradGradGradGradGradGradGradGradGradGradGrad

 ---------------------------------------------------------------------------------------------------
                            Z-MATRIX (ANGSTROMS AND DEGREES)
   CD    Cent   Atom    N1       Length/X        N2       Alpha/Y        N3        Beta/Z          J
 ---------------------------------------------------------------------------------------------------
      1      1  S 
      2      2  O        1   1.100000(     1)
      3      3  O        1   1.100000(     2)      2  127.335(     3)
 ---------------------------------------------------------------------------------------------------
                         Z-Matrix orientation:                         
 ---------------------------------------------------------------------
 Center     Atomic      Atomic             Coordinates (Angstroms)
 Number     Number       Type             X           Y           Z
 ---------------------------------------------------------------------
      1         16           0        0.000000    0.000000    0.000000
      2          8           0        0.000000    0.000000    1.100000
      3          8           0        0.874617    0.000000   -0.667117
 ---------------------------------------------------------------------
                    Distance matrix (angstroms):
                    1          2          3
     1  S    0.000000
     2  O    1.100000   0.000000
     3  O    1.100000   1.971714   0.000000
 Stoichiometry    O2S
 Framework group  C2V[C2(S),SGV(O2)]
 Deg. of freedom     2
 Full point group                 C2V     NOp   4
 Largest Abelian subgroup         C2V     NOp   4
 Largest concise Abelian subgroup C2      NOp   2
                         Standard orientation:                         
 ---------------------------------------------------------------------
 Center     Atomic      Atomic             Coordinates (Angstroms)
 Number     Number       Type             X           Y           Z
 ---------------------------------------------------------------------
      1         16           0        0.000000    0.000000    0.243970
      2          8           0        0.000000    0.985857   -0.243970
      3          8           0        0.000000   -0.985857   -0.243970
 ---------------------------------------------------------------------
 Rotational constants (GHZ):    132.7462312     16.2546412     14.4814075
 Standard basis: 6-31G(d) (5D, 7F)
 There are    21 symmetry adapted cartesian basis functions of A1  symmetry.
 There are     5 symmetry adapted cartesian basis functions of A2  symmetry.
 There are     8 symmetry adapted cartesian basis functions of B1  symmetry.
 There are    15 symmetry adapted cartesian basis functions of B2  symmetry.
 There are    19 symmetry adapted basis functions of A1  symmetry.
 There are     5 symmetry adapted basis functions of A2  symmetry.
 There are     8 symmetry adapted basis functions of B1  symmetry.
 There are    14 symmetry adapted basis functions of B2  symmetry.
    46 basis functions,   108 primitive gaussians,    49 cartesian basis functions
    16 alpha electrons       16 beta electrons
       nuclear repulsion energy       140.3305671051 Hartrees.
 NAtoms=    3 NActive=    3 NUniq=    2 SFac= 2.25D+00 NAtFMM=   60 NAOKFM=F Big=F
 Integral buffers will be    131072 words long.
 Raffenetti 2 integral format.
 Two-electron integral symmetry is turned on.
 One-electron integrals computed using PRISM.
 NBasis=    46 RedAO= T EigKep=  1.25D-02  NBF=    19     5     8    14
 NBsUse=    46 1.00D-06 EigRej= -1.00D+00 NBFU=    19     5     8    14
 Initial guess from the checkpoint file:  "/scratch/320660/Gau-10445.chk"
 B after Tr=     0.000000    0.000000    0.000000
         Rot=    1.000000    0.000000    0.000000    0.000000 Ang=   0.00 deg.
 Initial guess orbital symmetries:
       Occupied  (A1) (B2) (A1) (A1) (B2) (B1) (A1) (A1) (B2) (B1)
                 (A1) (A1) (B2) (A2) (B2) (A1)
       Virtual   (A1) (A1) (A1) (A1) (A1) (A1) (A1) (A1) (A1) (A1)
                 (A1) (A2) (A2) (A2) (A2) (B1) (B1) (B1) (B1) (B1)
                 (B1) (B2) (B2) (B2) (B2) (B2) (B2) (B2) (B2) (B2)
 ExpMin= 1.17D-01 ExpMax= 2.19D+04 ExpMxC= 3.30D+03 IAcc=1 IRadAn=         1 AccDes= 0.00D+00
 Harris functional with IExCor=  402 and IRadAn=       1 diagonalized for initial guess.
 HarFok:  IExCor=  402 AccDes= 0.00D+00 IRadAn=         1 IDoV= 1 UseB2=F ITyADJ=14
 ICtDFT=  3500011 ScaDFX=  1.000000  1.000000  1.000000  1.000000
 FoFCou: FMM=F IPFlag=           0 FMFlag=      100000 FMFlg1=           0
         NFxFlg=           0 DoJE=T BraDBF=F KetDBF=T FulRan=T
         wScrn=  0.000000 ICntrl=     500 IOpCl=  0 I1Cent=   200000004 NGrid=           0
         NMat0=    1 NMatS0=      1 NMatT0=    0 NMatD0=    1 NMtDS0=    0 NMtDT0=    0
 Petite list used in FoFCou.
 Keep R1 ints in memory in symmetry-blocked form, NReq=1483476.
 Requested convergence on RMS density matrix=1.00D-08 within 128 cycles.
 Requested convergence on MAX density matrix=1.00D-06.
 Requested convergence on             energy=1.00D-06.
 No special actions if energy rises.
 Integral accuracy reduced to 1.0D-05 until final iterations.
 Initial convergence to 1.0D-05 achieved.  Increase integral accuracy.
 SCF Done:  E(RB3LYP) =  -547.873488959     A.U. after   11 cycles
            NFock= 11  Conv=0.17D-08     -V/T= 1.9924
 Calling FoFJK, ICntrl=      2127 FMM=F ISym2X=1 I1Cent= 0 IOpClX= 0 NMat=1 NMatS=1 NMatT=0.
 ***** Axes restored to original set *****
 -------------------------------------------------------------------
 Center     Atomic                   Forces (Hartrees/Bohr)
 Number     Number              X              Y              Z
 -------------------------------------------------------------------
      1       16          -1.217296176    0.000000000   -0.602489028
      2        8           0.000998895    0.000000000    1.528966519
      3        8           1.216297280    0.000000000   -0.926477491
 -------------------------------------------------------------------
 Cartesian Forces:  Max     1.528966519 RMS     0.851161444
 -----------------------------------------------------------------------------------------------
                       Internal Coordinate Forces (Hartree/Bohr or radian)
  Cent   Atom   N1       Length/X         N2         Alpha/Y        N3         Beta/Z          J
 -----------------------------------------------------------------------------------------------
      1  S 
      2  O        1   1.528967(     1)
      3  O        1   1.528967(     2)      2  -0.002076(     3)
 -----------------------------------------------------------------------------------------------
 Internal  Forces:  Max     1.528966519 RMS     1.248396511

 GradGradGradGradGradGradGradGradGradGradGradGradGradGradGradGradGradGrad
 Berny optimization.
 Search for a local minimum.
 Step number   2 out of a maximum of   20 on scan point     2 out of    21
 All quantities printed in internal units (Hartrees-Bohrs-Radians)
 Update second derivatives using D2CorN and points    1    2
 DE= -1.31D-03 DEPred=-1.23D-03 R= 1.07D+00
 TightC=F SS=  1.41D+00  RLast= 6.21D-02 DXNew= 5.0454D-01 1.8641D-01
 Trust test= 1.07D+00 RLast= 6.21D-02 DXMaxT set to 3.00D-01
 The second derivative matrix:
                          DSO       ASO
           DSO         35.18033
           ASO          0.21908   0.60259
 ITU=  1  0
     Eigenvalues ---    0.602591000.00000
 RFO step:  Lambda= 0.00000000D+00 EMin= 6.02593820D-01
 Quartic linear search produced a step of  0.05226.
 Variable       Old X    -DE/DX   Delta X   Delta X   Delta X     New X
                                 (Linear)    (Quad)   (Total)
   DSO        2.07870   3.05793   0.00000   0.00000   0.00000   2.07870
   ASO        2.22241  -0.00208  -0.00325   0.00000  -0.00325   2.21916
         Item               Value     Threshold  Converged?
 Maximum Force            0.002076     0.000450     NO 
 RMS     Force            0.002076     0.000300     NO 
 Maximum Displacement     0.003247     0.001800     NO 
 RMS     Displacement     0.002296     0.001200     NO 
 Predicted change in Energy=-3.565501D-06
 GradGradGradGradGradGradGradGradGradGradGradGradGradGradGradGradGradGrad

 ---------------------------------------------------------------------------------------------------
                            Z-MATRIX (ANGSTROMS AND DEGREES)
   CD    Cent   Atom    N1       Length/X        N2       Alpha/Y        N3        Beta/Z          J
 ---------------------------------------------------------------------------------------------------
      1      1  S 
      2      2  O        1   1.100000(     1)
      3      3  O        1   1.100000(     2)      2  127.149(     3)
 ---------------------------------------------------------------------------------------------------
                         Z-Matrix orientation:                         
 ---------------------------------------------------------------------
 Center     Atomic      Atomic             Coordinates (Angstroms)
 Number     Number       Type             X           Y           Z
 ---------------------------------------------------------------------
      1         16           0        0.000000    0.000000    0.000000
      2          8           0        0.000000    0.000000    1.100000
      3          8           0        0.876779    0.000000   -0.664273
 ---------------------------------------------------------------------
                    Distance matrix (angstroms):
                    1          2          3
     1  S    0.000000
     2  O    1.100000   0.000000
     3  O    1.100000   1.970127   0.000000
 Stoichiometry    O2S
 Framework group  C2V[C2(S),SGV(O2)]
 Deg. of freedom     2
 Full point group                 C2V     NOp   4
 Largest Abelian subgroup         C2V     NOp   4
 Largest concise Abelian subgroup C2      NOp   2
                         Standard orientation:                         
 ---------------------------------------------------------------------
 Center     Atomic      Atomic             Coordinates (Angstroms)
 Number     Number       Type             X           Y           Z
 ---------------------------------------------------------------------
      1         16           0        0.000000    0.000000    0.244770
      2          8           0        0.000000    0.985064   -0.244770
      3          8           0        0.000000   -0.985064   -0.244770
 ---------------------------------------------------------------------
 Rotational constants (GHZ):    131.8799811     16.2808379     14.4917975
 Standard basis: 6-31G(d) (5D, 7F)
 There are    21 symmetry adapted cartesian basis functions of A1  symmetry.
 There are     5 symmetry adapted cartesian basis functions of A2  symmetry.
 There are     8 symmetry adapted cartesian basis functions of B1  symmetry.
 There are    15 symmetry adapted cartesian basis functions of B2  symmetry.
 There are    19 symmetry adapted basis functions of A1  symmetry.
 There are     5 symmetry adapted basis functions of A2  symmetry.
 There are     8 symmetry adapted basis functions of B1  symmetry.
 There are    14 symmetry adapted basis functions of B2  symmetry.
    46 basis functions,   108 primitive gaussians,    49 cartesian basis functions
    16 alpha electrons       16 beta electrons
       nuclear repulsion energy       140.3444028278 Hartrees.
 NAtoms=    3 NActive=    3 NUniq=    2 SFac= 2.25D+00 NAtFMM=   60 NAOKFM=F Big=F
 Integral buffers will be    131072 words long.
 Raffenetti 2 integral format.
 Two-electron integral symmetry is turned on.
 One-electron integrals computed using PRISM.
 NBasis=    46 RedAO= T EigKep=  1.25D-02  NBF=    19     5     8    14
 NBsUse=    46 1.00D-06 EigRej= -1.00D+00 NBFU=    19     5     8    14
 Initial guess from the checkpoint file:  "/scratch/320660/Gau-10445.chk"
 B after Tr=     0.000000    0.000000    0.000000
         Rot=    1.000000    0.000000    0.000000    0.000000 Ang=   0.00 deg.
 Initial guess orbital symmetries:
       Occupied  (A1) (B2) (A1) (A1) (B2) (B1) (A1) (A1) (B2) (B1)
                 (A1) (A1) (B2) (A2) (B2) (A1)
       Virtual   (A1) (A1) (A1) (A1) (A1) (A1) (A1) (A1) (A1) (A1)
                 (A1) (A2) (A2) (A2) (A2) (B1) (B1) (B1) (B1) (B1)
                 (B1) (B2) (B2) (B2) (B2) (B2) (B2) (B2) (B2) (B2)
 Keep R1 ints in memory in symmetry-blocked form, NReq=1483476.
 Requested convergence on RMS density matrix=1.00D-08 within 128 cycles.
 Requested convergence on MAX density matrix=1.00D-06.
 Requested convergence on             energy=1.00D-06.
 No special actions if energy rises.
 SCF Done:  E(RB3LYP) =  -547.873492333     A.U. after    7 cycles
            NFock=  7  Conv=0.41D-08     -V/T= 1.9924
 Calling FoFJK, ICntrl=      2127 FMM=F ISym2X=1 I1Cent= 0 IOpClX= 0 NMat=1 NMatS=1 NMatT=0.
 ***** Axes restored to original set *****
 -------------------------------------------------------------------
 Center     Atomic                   Forces (Hartrees/Bohr)
 Number     Number              X              Y              Z
 -------------------------------------------------------------------
      1       16          -1.218962471    0.000000000   -0.605779489
      2        8          -0.000000161    0.000000000    1.529301272
      3        8           1.218962632    0.000000000   -0.923521784
 -------------------------------------------------------------------
 Cartesian Forces:  Max     1.529301272 RMS     0.851819168
 -----------------------------------------------------------------------------------------------
                       Internal Coordinate Forces (Hartree/Bohr or radian)
  Cent   Atom   N1       Length/X         N2         Alpha/Y        N3         Beta/Z          J
 -----------------------------------------------------------------------------------------------
      1  S 
      2  O        1   1.529301(     1)
      3  O        1   1.529301(     2)      2   0.000000(     3)
 -----------------------------------------------------------------------------------------------
 Internal  Forces:  Max     1.529301272 RMS     1.248669260

 GradGradGradGradGradGradGradGradGradGradGradGradGradGradGradGradGradGrad
 Berny optimization.
 Search for a local minimum.
 Step number   3 out of a maximum of   20 on scan point     2 out of    21
 All quantities printed in internal units (Hartrees-Bohrs-Radians)
 Update second derivatives using D2CorN and points    2    3
 DE= -3.37D-06 DEPred=-3.57D-06 R= 9.46D-01
 TightC=F SS=  1.41D+00  RLast= 3.25D-03 DXNew= 5.0454D-01 9.7410D-03
 Trust test= 9.46D-01 RLast= 3.25D-03 DXMaxT set to 3.00D-01
 The second derivative matrix:
                          DSO       ASO
           DSO         35.18033
           ASO          0.21264   0.63959
 ITU=  1  1  0
     Eigenvalues ---    0.639591000.00000
 RFO step:  Lambda= 0.00000000D+00 EMin= 6.39588797D-01
 Quartic linear search produced a step of -0.00016.
 Variable       Old X    -DE/DX   Delta X   Delta X   Delta X     New X
                                 (Linear)    (Quad)   (Total)
   DSO        2.07870   3.05860   0.00000   0.00000   0.00000   2.07870
   ASO        2.21916   0.00000   0.00000   0.00000   0.00000   2.21916
         Item               Value     Threshold  Converged?
 Maximum Force            0.000000     0.000450     YES
 RMS     Force            0.000000     0.000300     YES
 Maximum Displacement     0.000001     0.001800     YES
 RMS     Displacement     0.000000     0.001200     YES
 Predicted change in Energy=-8.736855D-14
 Optimization completed.
    -- Stationary point found.
                       ----------------------------
                       !   Optimized Parameters   !
                       ! (Angstroms and Degrees)  !
 ----------------------                            ----------------------
 !      Name          Value   Derivative information (Atomic Units)     !
 ------------------------------------------------------------------------
 !       DSO         1.1      -DE/DX =    3.0586                        !
 !       ASO       127.1486   -DE/DX =    0.0                           !
 ------------------------------------------------------------------------
 GradGradGradGradGradGradGradGradGradGradGradGradGradGradGradGradGradGrad

 ---------------------------------------------------------------------------------------------------
                            Z-MATRIX (ANGSTROMS AND DEGREES)
   CD    Cent   Atom    N1       Length/X        N2       Alpha/Y        N3        Beta/Z          J
 ---------------------------------------------------------------------------------------------------
      1      1  S 
      2      2  O        1   1.200000(     1)
      3      3  O        1   1.200000(     2)      2  127.149(     3)
 ---------------------------------------------------------------------------------------------------
                         Z-Matrix orientation:                         
 ---------------------------------------------------------------------
 Center     Atomic      Atomic             Coordinates (Angstroms)
 Number     Number       Type             X           Y           Z
 ---------------------------------------------------------------------
      1         16           0        0.000000    0.000000    0.000000
      2          8           0        0.000000    0.000000    1.200000
      3          8           0        0.956486    0.000000   -0.724662
 ---------------------------------------------------------------------
                    Distance matrix (angstroms):
                    1          2          3
     1  S    0.000000
     2  O    1.200000   0.000000
     3  O    1.200000   2.149230   0.000000
 Stoichiometry    O2S
 Framework group  C2V[C2(S),SGV(O2)]
 Deg. of freedom     2
 Full point group                 C2V     NOp   4
 Largest Abelian subgroup         C2V     NOp   4
 Largest concise Abelian subgroup C2      NOp   2
                         Standard orientation:                         
 ---------------------------------------------------------------------
 Center     Atomic      Atomic             Coordinates (Angstroms)
 Number     Number       Type             X           Y           Z
 ---------------------------------------------------------------------
      1         16           0        0.000000    0.000000    0.267022
      2          8           0        0.000000    1.074615   -0.267022
      3          8           0        0.000000   -1.074615   -0.267022
 ---------------------------------------------------------------------
 Rotational constants (GHZ):    110.8158175     13.6804263     12.1771354
 Standard basis: 6-31G(d) (5D, 7F)
 There are    21 symmetry adapted cartesian basis functions of A1  symmetry.
 There are     5 symmetry adapted cartesian basis functions of A2  symmetry.
 There are     8 symmetry adapted cartesian basis functions of B1  symmetry.
 There are    15 symmetry adapted cartesian basis functions of B2  symmetry.
 There are    19 symmetry adapted basis functions of A1  symmetry.
 There are     5 symmetry adapted basis functions of A2  symmetry.
 There are     8 symmetry adapted basis functions of B1  symmetry.
 There are    14 symmetry adapted basis functions of B2  symmetry.
    46 basis functions,   108 primitive gaussians,    49 cartesian basis functions
    16 alpha electrons       16 beta electrons
       nuclear repulsion energy       128.6490359255 Hartrees.
 NAtoms=    3 NActive=    3 NUniq=    2 SFac= 2.25D+00 NAtFMM=   60 NAOKFM=F Big=F
 Integral buffers will be    131072 words long.
 Raffenetti 2 integral format.
 Two-electron integral symmetry is turned on.
 One-electron integrals computed using PRISM.
 NBasis=    46 RedAO= T EigKep=  1.66D-02  NBF=    19     5     8    14
 NBsUse=    46 1.00D-06 EigRej= -1.00D+00 NBFU=    19     5     8    14
 Initial guess from the checkpoint file:  "/scratch/320660/Gau-10445.chk"
 B after Tr=     0.000000    0.000000    0.000000
         Rot=    1.000000    0.000000    0.000000    0.000000 Ang=   0.00 deg.
 Initial guess orbital symmetries:
       Occupied  (A1) (B2) (A1) (A1) (B2) (B1) (A1) (A1) (B2) (B1)
                 (A1) (A1) (B2) (A2) (B2) (A1)
       Virtual   (A1) (A1) (A1) (A1) (A1) (A1) (A1) (A1) (A1) (A1)
                 (A1) (A2) (A2) (A2) (A2) (B1) (B1) (B1) (B1) (B1)
                 (B1) (B2) (B2) (B2) (B2) (B2) (B2) (B2) (B2) (B2)
 ExpMin= 1.17D-01 ExpMax= 2.19D+04 ExpMxC= 3.30D+03 IAcc=1 IRadAn=         1 AccDes= 0.00D+00
 Harris functional with IExCor=  402 and IRadAn=       1 diagonalized for initial guess.
 HarFok:  IExCor=  402 AccDes= 0.00D+00 IRadAn=         1 IDoV= 1 UseB2=F ITyADJ=14
 ICtDFT=  3500011 ScaDFX=  1.000000  1.000000  1.000000  1.000000
 FoFCou: FMM=F IPFlag=           0 FMFlag=      100000 FMFlg1=           0
         NFxFlg=           0 DoJE=T BraDBF=F KetDBF=T FulRan=T
         wScrn=  0.000000 ICntrl=     500 IOpCl=  0 I1Cent=   200000004 NGrid=           0
         NMat0=    1 NMatS0=      1 NMatT0=    0 NMatD0=    1 NMtDS0=    0 NMtDT0=    0
 Petite list used in FoFCou.
 Keep R1 ints in memory in symmetry-blocked form, NReq=1483476.
 Requested convergence on RMS density matrix=1.00D-08 within 128 cycles.
 Requested convergence on MAX density matrix=1.00D-06.
 Requested convergence on             energy=1.00D-06.
 No special actions if energy rises.
 Integral accuracy reduced to 1.0D-05 until final iterations.
 Initial convergence to 1.0D-05 achieved.  Increase integral accuracy.
 SCF Done:  E(RB3LYP) =  -548.293467354     A.U. after   12 cycles
            NFock= 12  Conv=0.26D-08     -V/T= 1.9976
 Calling FoFJK, ICntrl=      2127 FMM=F ISym2X=1 I1Cent= 0 IOpClX= 0 NMat=1 NMatS=1 NMatT=0.
 ***** Axes restored to original set *****
 -------------------------------------------------------------------
 Center     Atomic                   Forces (Hartrees/Bohr)
 Number     Number              X              Y              Z
 -------------------------------------------------------------------
      1       16          -0.630803626    0.000000000   -0.313486188
      2        8           0.013183977    0.000000000    0.764872301
      3        8           0.617619649    0.000000000   -0.451386113
 -------------------------------------------------------------------
 Cartesian Forces:  Max     0.764872301 RMS     0.430322065
 -----------------------------------------------------------------------------------------------
                       Internal Coordinate Forces (Hartree/Bohr or radian)
  Cent   Atom   N1       Length/X         N2         Alpha/Y        N3         Beta/Z          J
 -----------------------------------------------------------------------------------------------
      1  S 
      2  O        1   0.764872(     1)
      3  O        1   0.764872(     2)      2  -0.029897(     3)
 -----------------------------------------------------------------------------------------------
 Internal  Forces:  Max     0.764872301 RMS     0.624754112

 GradGradGradGradGradGradGradGradGradGradGradGradGradGradGradGradGradGrad
 Berny optimization.
 Search for a local minimum.
 Step number   1 out of a maximum of   20 on scan point     3 out of    21
 All quantities printed in internal units (Hartrees-Bohrs-Radians)
 Second derivative matrix not updated -- first step.
 The second derivative matrix:
                          DSO       ASO
           DSO         35.18033
           ASO          0.21264   0.63959
 ITU=  0
     Eigenvalues ---    0.639591000.00000
 RFO step:  Lambda=-1.39445455D-03 EMin= 6.39588797D-01
 Linear search not attempted -- first point.
 Variable       Old X    -DE/DX   Delta X   Delta X   Delta X     New X
                                 (Linear)    (Quad)   (Total)
   DSO        2.26767   1.52974   0.00000   0.00000   0.00000   2.26767
   ASO        2.21916  -0.02990   0.00000  -0.04664  -0.04664   2.17252
         Item               Value     Threshold  Converged?
 Maximum Force            0.029897     0.000450     NO 
 RMS     Force            0.029897     0.000300     NO 
 Maximum Displacement     0.046642     0.001800     NO 
 RMS     Displacement     0.032981     0.001200     NO 
 Predicted change in Energy=-6.987474D-04
 GradGradGradGradGradGradGradGradGradGradGradGradGradGradGradGradGradGrad

 ---------------------------------------------------------------------------------------------------
                            Z-MATRIX (ANGSTROMS AND DEGREES)
   CD    Cent   Atom    N1       Length/X        N2       Alpha/Y        N3        Beta/Z          J
 ---------------------------------------------------------------------------------------------------
      1      1  S 
      2      2  O        1   1.200000(     1)
      3      3  O        1   1.200000(     2)      2  124.476(     3)
 ---------------------------------------------------------------------------------------------------
                         Z-Matrix orientation:                         
 ---------------------------------------------------------------------
 Center     Atomic      Atomic             Coordinates (Angstroms)
 Number     Number       Type             X           Y           Z
 ---------------------------------------------------------------------
      1         16           0        0.000000    0.000000    0.000000
      2          8           0        0.000000    0.000000    1.200000
      3          8           0        0.989233    0.000000   -0.679277
 ---------------------------------------------------------------------
                    Distance matrix (angstroms):
                    1          2          3
     1  S    0.000000
     2  O    1.200000   0.000000
     3  O    1.200000   2.123738   0.000000
 Stoichiometry    O2S
 Framework group  C2V[C2(S),SGV(O2)]
 Deg. of freedom     2
 Full point group                 C2V     NOp   4
 Largest Abelian subgroup         C2V     NOp   4
 Largest concise Abelian subgroup C2      NOp   2
                         Standard orientation:                         
 ---------------------------------------------------------------------
 Center     Atomic      Atomic             Coordinates (Angstroms)
 Number     Number       Type             X           Y           Z
 ---------------------------------------------------------------------
      1         16           0        0.000000    0.000000    0.279479
      2          8           0        0.000000    1.061869   -0.279479
      3          8           0        0.000000   -1.061869   -0.279479
 ---------------------------------------------------------------------
 Rotational constants (GHZ):    101.1574474     14.0108093     12.3063224
 Standard basis: 6-31G(d) (5D, 7F)
 There are    21 symmetry adapted cartesian basis functions of A1  symmetry.
 There are     5 symmetry adapted cartesian basis functions of A2  symmetry.
 There are     8 symmetry adapted cartesian basis functions of B1  symmetry.
 There are    15 symmetry adapted cartesian basis functions of B2  symmetry.
 There are    19 symmetry adapted basis functions of A1  symmetry.
 There are     5 symmetry adapted basis functions of A2  symmetry.
 There are     8 symmetry adapted basis functions of B1  symmetry.
 There are    14 symmetry adapted basis functions of B2  symmetry.
    46 basis functions,   108 primitive gaussians,    49 cartesian basis functions
    16 alpha electrons       16 beta electrons
       nuclear repulsion energy       128.8381778036 Hartrees.
 NAtoms=    3 NActive=    3 NUniq=    2 SFac= 2.25D+00 NAtFMM=   60 NAOKFM=F Big=F
 Integral buffers will be    131072 words long.
 Raffenetti 2 integral format.
 Two-electron integral symmetry is turned on.
 One-electron integrals computed using PRISM.
 NBasis=    46 RedAO= T EigKep=  1.66D-02  NBF=    19     5     8    14
 NBsUse=    46 1.00D-06 EigRej= -1.00D+00 NBFU=    19     5     8    14
 Initial guess from the checkpoint file:  "/scratch/320660/Gau-10445.chk"
 B after Tr=     0.000000    0.000000    0.000000
         Rot=    1.000000    0.000000    0.000000    0.000000 Ang=   0.00 deg.
 Initial guess orbital symmetries:
       Occupied  (A1) (B2) (A1) (A1) (B2) (B1) (A1) (A1) (B2) (A1)
                 (B1) (A1) (B2) (A2) (B2) (A1)
       Virtual   (A1) (A1) (A1) (A1) (A1) (A1) (A1) (A1) (A1) (A1)
                 (A1) (A2) (A2) (A2) (A2) (B1) (B1) (B1) (B1) (B1)
                 (B1) (B2) (B2) (B2) (B2) (B2) (B2) (B2) (B2) (B2)
 ExpMin= 1.17D-01 ExpMax= 2.19D+04 ExpMxC= 3.30D+03 IAcc=1 IRadAn=         1 AccDes= 0.00D+00
 Harris functional with IExCor=  402 and IRadAn=       1 diagonalized for initial guess.
 HarFok:  IExCor=  402 AccDes= 0.00D+00 IRadAn=         1 IDoV= 1 UseB2=F ITyADJ=14
 ICtDFT=  3500011 ScaDFX=  1.000000  1.000000  1.000000  1.000000
 FoFCou: FMM=F IPFlag=           0 FMFlag=      100000 FMFlg1=           0
         NFxFlg=           0 DoJE=T BraDBF=F KetDBF=T FulRan=T
         wScrn=  0.000000 ICntrl=     500 IOpCl=  0 I1Cent=   200000004 NGrid=           0
         NMat0=    1 NMatS0=      1 NMatT0=    0 NMatD0=    1 NMtDS0=    0 NMtDT0=    0
 Petite list used in FoFCou.
 Keep R1 ints in memory in symmetry-blocked form, NReq=1483476.
 Requested convergence on RMS density matrix=1.00D-08 within 128 cycles.
 Requested convergence on MAX density matrix=1.00D-06.
 Requested convergence on             energy=1.00D-06.
 No special actions if energy rises.
 Integral accuracy reduced to 1.0D-05 until final iterations.
 Initial convergence to 1.0D-05 achieved.  Increase integral accuracy.
 SCF Done:  E(RB3LYP) =  -548.294278849     A.U. after   11 cycles
            NFock= 11  Conv=0.16D-08     -V/T= 1.9976
 Calling FoFJK, ICntrl=      2127 FMM=F ISym2X=1 I1Cent= 0 IOpClX= 0 NMat=1 NMatS=1 NMatT=0.
 ***** Axes restored to original set *****
 -------------------------------------------------------------------
 Center     Atomic                   Forces (Hartrees/Bohr)
 Number     Number              X              Y              Z
 -------------------------------------------------------------------
      1       16          -0.636131713    0.000000000   -0.334853635
      2        8           0.002025918    0.000000000    0.767817575
      3        8           0.634105795    0.000000000   -0.432963939
 -------------------------------------------------------------------
 Cartesian Forces:  Max     0.767817575 RMS     0.434087341
 -----------------------------------------------------------------------------------------------
                       Internal Coordinate Forces (Hartree/Bohr or radian)
  Cent   Atom   N1       Length/X         N2         Alpha/Y        N3         Beta/Z          J
 -----------------------------------------------------------------------------------------------
      1  S 
      2  O        1   0.767818(     1)
      3  O        1   0.767818(     2)      2  -0.004594(     3)
 -----------------------------------------------------------------------------------------------
 Internal  Forces:  Max     0.767817575 RMS     0.626926035

 GradGradGradGradGradGradGradGradGradGradGradGradGradGradGradGradGradGrad
 Berny optimization.
 Search for a local minimum.
 Step number   2 out of a maximum of   20 on scan point     3 out of    21
 All quantities printed in internal units (Hartrees-Bohrs-Radians)
 Update second derivatives using D2CorN and points    1    2
 DE= -8.11D-04 DEPred=-6.99D-04 R= 1.16D+00
 TightC=F SS=  1.41D+00  RLast= 4.66D-02 DXNew= 5.0454D-01 1.3993D-01
 Trust test= 1.16D+00 RLast= 4.66D-02 DXMaxT set to 3.00D-01
 The second derivative matrix:
                          DSO       ASO
           DSO         35.18033
           ASO          0.16946   0.54249
 ITU=  1  0
     Eigenvalues ---    0.542491000.00000
 RFO step:  Lambda= 0.00000000D+00 EMin= 5.42486465D-01
 Quartic linear search produced a step of  0.17410.
 Variable       Old X    -DE/DX   Delta X   Delta X   Delta X     New X
                                 (Linear)    (Quad)   (Total)
   DSO        2.26767   1.53564   0.00000   0.00000   0.00000   2.26767
   ASO        2.17252  -0.00459  -0.00812   0.00000  -0.00812   2.16440
         Item               Value     Threshold  Converged?
 Maximum Force            0.004594     0.000450     NO 
 RMS     Force            0.004594     0.000300     NO 
 Maximum Displacement     0.008120     0.001800     NO 
 RMS     Displacement     0.005742     0.001200     NO 
 Predicted change in Energy=-1.942005D-05
 GradGradGradGradGradGradGradGradGradGradGradGradGradGradGradGradGradGrad

 ---------------------------------------------------------------------------------------------------
                            Z-MATRIX (ANGSTROMS AND DEGREES)
   CD    Cent   Atom    N1       Length/X        N2       Alpha/Y        N3        Beta/Z          J
 ---------------------------------------------------------------------------------------------------
      1      1  S 
      2      2  O        1   1.200000(     1)
      3      3  O        1   1.200000(     2)      2  124.011(     3)
 ---------------------------------------------------------------------------------------------------
                         Z-Matrix orientation:                         
 ---------------------------------------------------------------------
 Center     Atomic      Atomic             Coordinates (Angstroms)
 Number     Number       Type             X           Y           Z
 ---------------------------------------------------------------------
      1         16           0        0.000000    0.000000    0.000000
      2          8           0        0.000000    0.000000    1.200000
      3          8           0        0.994717    0.000000   -0.671222
 ---------------------------------------------------------------------
                    Distance matrix (angstroms):
                    1          2          3
     1  S    0.000000
     2  O    1.200000   0.000000
     3  O    1.200000   2.119182   0.000000
 Stoichiometry    O2S
 Framework group  C2V[C2(S),SGV(O2)]
 Deg. of freedom     2
 Full point group                 C2V     NOp   4
 Largest Abelian subgroup         C2V     NOp   4
 Largest concise Abelian subgroup C2      NOp   2
                         Standard orientation:                         
 ---------------------------------------------------------------------
 Center     Atomic      Atomic             Coordinates (Angstroms)
 Number     Number       Type             X           Y           Z
 ---------------------------------------------------------------------
      1         16           0        0.000000    0.000000    0.281632
      2          8           0        0.000000    1.059591   -0.281632
      3          8           0        0.000000   -1.059591   -0.281632
 ---------------------------------------------------------------------
 Rotational constants (GHZ):     99.6164280     14.0711238     12.3295389
 Standard basis: 6-31G(d) (5D, 7F)
 There are    21 symmetry adapted cartesian basis functions of A1  symmetry.
 There are     5 symmetry adapted cartesian basis functions of A2  symmetry.
 There are     8 symmetry adapted cartesian basis functions of B1  symmetry.
 There are    15 symmetry adapted cartesian basis functions of B2  symmetry.
 There are    19 symmetry adapted basis functions of A1  symmetry.
 There are     5 symmetry adapted basis functions of A2  symmetry.
 There are     8 symmetry adapted basis functions of B1  symmetry.
 There are    14 symmetry adapted basis functions of B2  symmetry.
    46 basis functions,   108 primitive gaussians,    49 cartesian basis functions
    16 alpha electrons       16 beta electrons
       nuclear repulsion energy       128.8724657974 Hartrees.
 NAtoms=    3 NActive=    3 NUniq=    2 SFac= 2.25D+00 NAtFMM=   60 NAOKFM=F Big=F
 Integral buffers will be    131072 words long.
 Raffenetti 2 integral format.
 Two-electron integral symmetry is turned on.
 One-electron integrals computed using PRISM.
 NBasis=    46 RedAO= T EigKep=  1.66D-02  NBF=    19     5     8    14
 NBsUse=    46 1.00D-06 EigRej= -1.00D+00 NBFU=    19     5     8    14
 Initial guess from the checkpoint file:  "/scratch/320660/Gau-10445.chk"
 B after Tr=     0.000000    0.000000    0.000000
         Rot=    1.000000    0.000000    0.000000    0.000000 Ang=   0.00 deg.
 Initial guess orbital symmetries:
       Occupied  (A1) (B2) (A1) (A1) (B2) (B1) (A1) (A1) (B2) (A1)
                 (B1) (A1) (B2) (A2) (B2) (A1)
       Virtual   (A1) (A1) (A1) (A1) (A1) (A1) (A1) (A1) (A1) (A1)
                 (A1) (A2) (A2) (A2) (A2) (B1) (B1) (B1) (B1) (B1)
                 (B1) (B2) (B2) (B2) (B2) (B2) (B2) (B2) (B2) (B2)
 Keep R1 ints in memory in symmetry-blocked form, NReq=1483476.
 Requested convergence on RMS density matrix=1.00D-08 within 128 cycles.
 Requested convergence on MAX density matrix=1.00D-06.
 Requested convergence on             energy=1.00D-06.
 No special actions if energy rises.
 SCF Done:  E(RB3LYP) =  -548.294297535     A.U. after    7 cycles
            NFock=  7  Conv=0.58D-08     -V/T= 1.9976
 Calling FoFJK, ICntrl=      2127 FMM=F ISym2X=1 I1Cent= 0 IOpClX= 0 NMat=1 NMatS=1 NMatT=0.
 ***** Axes restored to original set *****
 -------------------------------------------------------------------
 Center     Atomic                   Forces (Hartrees/Bohr)
 Number     Number              X              Y              Z
 -------------------------------------------------------------------
      1       16          -0.636946258    0.000000000   -0.338592233
      2        8          -0.000000800    0.000000000    0.768396621
      3        8           0.636947058    0.000000000   -0.429804388
 -------------------------------------------------------------------
 Cartesian Forces:  Max     0.768396621 RMS     0.434768389
[...]
 Initial guess orbital symmetries:
       Occupied  (A1) (A1) (B2) (A1) (B1) (B2) (A1) (A1) (B2) (A1)
                 (B2) (A1) (B1) (A1) (B2) (A2)
       Virtual   (A1) (A1) (A1) (A1) (A1) (A1) (A1) (A1) (A1) (A1)
                 (A1) (A2) (A2) (A2) (A2) (B1) (B1) (B1) (B1) (B1)
                 (B1) (B2) (B2) (B2) (B2) (B2) (B2) (B2) (B2) (B2)
 Keep R1 ints in memory in symmetry-blocked form, NReq=1483476.
 Requested convergence on RMS density matrix=1.00D-08 within 128 cycles.
 Requested convergence on MAX density matrix=1.00D-06.
 Requested convergence on             energy=1.00D-06.
 No special actions if energy rises.
 SCF Done:  E(RB3LYP) =  -548.023361770     A.U. after   13 cycles
            NFock= 13  Conv=0.19D-08     -V/T= 2.0041
 Calling FoFJK, ICntrl=      2127 FMM=F ISym2X=1 I1Cent= 0 IOpClX= 0 NMat=1 NMatS=1 NMatT=0.
 ***** Axes restored to original set *****
 -------------------------------------------------------------------
 Center     Atomic                   Forces (Hartrees/Bohr)
 Number     Number              X              Y              Z
 -------------------------------------------------------------------
      1       16           0.044329464    0.000000000    0.041260732
      2        8           0.000017220    0.000000000   -0.044462082
      3        8          -0.044346684    0.000000000    0.003201349
 -------------------------------------------------------------------
 Cartesian Forces:  Max     0.044462082 RMS     0.029100026
 -----------------------------------------------------------------------------------------------
                       Internal Coordinate Forces (Hartree/Bohr or radian)
  Cent   Atom   N1       Length/X         N2         Alpha/Y        N3         Beta/Z          J
 -----------------------------------------------------------------------------------------------
      1  S 
      2  O        1  -0.044462(     1)
      3  O        1  -0.044462(     2)      2  -0.000098(     3)
 -----------------------------------------------------------------------------------------------
 Internal  Forces:  Max     0.044462082 RMS     0.036303181

 GradGradGradGradGradGradGradGradGradGradGradGradGradGradGradGradGradGrad
 Berny optimization.
 Search for a local minimum.
 Step number   2 out of a maximum of   20 on scan point    21 out of    21
 All quantities printed in internal units (Hartrees-Bohrs-Radians)
 Update second derivatives using D2CorN and points    1    2
 DE= -3.17D-06 DEPred=-2.55D-06 R= 1.24D+00
 TightC=F SS=  1.41D+00  RLast= 1.27D-02 DXNew= 5.0454D-01 3.8034D-02
 Trust test= 1.24D+00 RLast= 1.27D-02 DXMaxT set to 3.00D-01
 The second derivative matrix:
                          DSO       ASO
           DSO         35.18033
           ASO          0.00228   0.02407
 ITU=  1  0
     Eigenvalues ---    0.024071000.00000
 RFO step:  Lambda= 0.00000000D+00 EMin= 2.40662790D-02
 Quartic linear search produced a step of  0.31997.
 Variable       Old X    -DE/DX   Delta X   Delta X   Delta X     New X
                                 (Linear)    (Quad)   (Total)
   DSO        5.66918  -0.08892   0.00000   0.00000   0.00000   5.66918
   ASO        1.64247  -0.00010  -0.00406   0.00000  -0.00406   1.63842
         Item               Value     Threshold  Converged?
 Maximum Force            0.000098     0.000450     YES
 RMS     Force            0.000098     0.000300     YES
 Maximum Displacement     0.004057     0.001800     NO 
 RMS     Displacement     0.002868     0.001200     NO 
 Predicted change in Energy=-1.979960D-07
 GradGradGradGradGradGradGradGradGradGradGradGradGradGradGradGradGradGrad

 ---------------------------------------------------------------------------------------------------
                            Z-MATRIX (ANGSTROMS AND DEGREES)
   CD    Cent   Atom    N1       Length/X        N2       Alpha/Y        N3        Beta/Z          J
 ---------------------------------------------------------------------------------------------------
      1      1  S 
      2      2  O        1   3.000000(     1)
      3      3  O        1   3.000000(     2)      2   93.874(     3)
 ---------------------------------------------------------------------------------------------------
                         Z-Matrix orientation:                         
 ---------------------------------------------------------------------
 Center     Atomic      Atomic             Coordinates (Angstroms)
 Number     Number       Type             X           Y           Z
 ---------------------------------------------------------------------
      1         16           0        0.000000    0.000000    0.000000
      2          8           0        0.000000    0.000000    3.000000
      3          8           0        2.993144    0.000000   -0.202706
 ---------------------------------------------------------------------
                    Distance matrix (angstroms):
                    1          2          3
     1  S    0.000000
     2  O    3.000000   0.000000
     3  O    3.000000   4.383633   0.000000
 Stoichiometry    O2S
 Framework group  C2V[C2(S),SGV(O2)]
 Deg. of freedom     2
 Full point group                 C2V     NOp   4
 Largest Abelian subgroup         C2V     NOp   4
 Largest concise Abelian subgroup C2      NOp   2
                         Standard orientation:                         
 ---------------------------------------------------------------------
 Center     Atomic      Atomic             Coordinates (Angstroms)
 Number     Number       Type             X           Y           Z
 ---------------------------------------------------------------------
      1         16           0        0.000000    0.000000    1.024200
      2          8           0        0.000000    2.191816   -1.024200
      3          8           0        0.000000   -2.191816   -1.024200
 ---------------------------------------------------------------------
 Rotational constants (GHZ):      7.5322813      3.2884928      2.2891018
 Standard basis: 6-31G(d) (5D, 7F)
 There are    21 symmetry adapted cartesian basis functions of A1  symmetry.
 There are     5 symmetry adapted cartesian basis functions of A2  symmetry.
 There are     8 symmetry adapted cartesian basis functions of B1  symmetry.
 There are    15 symmetry adapted cartesian basis functions of B2  symmetry.
 There are    19 symmetry adapted basis functions of A1  symmetry.
 There are     5 symmetry adapted basis functions of A2  symmetry.
 There are     8 symmetry adapted basis functions of B1  symmetry.
 There are    14 symmetry adapted basis functions of B2  symmetry.
    46 basis functions,   108 primitive gaussians,    49 cartesian basis functions
    16 alpha electrons       16 beta electrons
       nuclear repulsion energy        52.8823167122 Hartrees.
 NAtoms=    3 NActive=    3 NUniq=    2 SFac= 2.25D+00 NAtFMM=   60 NAOKFM=F Big=F
 Integral buffers will be    131072 words long.
 Raffenetti 2 integral format.
 Two-electron integral symmetry is turned on.
 One-electron integrals computed using PRISM.
 NBasis=    46 RedAO= T EigKep=  1.97D-01  NBF=    19     5     8    14
 NBsUse=    46 1.00D-06 EigRej= -1.00D+00 NBFU=    19     5     8    14
 Initial guess from the checkpoint file:  "/scratch/320660/Gau-10445.chk"
 B after Tr=     0.000000    0.000000    0.000000
         Rot=    1.000000    0.000000    0.000000    0.000000 Ang=   0.00 deg.
 Initial guess orbital symmetries:
       Occupied  (A1) (A1) (B2) (A1) (B1) (B2) (A1) (A1) (B2) (A1)
                 (B2) (A1) (B1) (A1) (B2) (A2)
       Virtual   (A1) (A1) (A1) (A1) (A1) (A1) (A1) (A1) (A1) (A1)
                 (A1) (A2) (A2) (A2) (A2) (B1) (B1) (B1) (B1) (B1)
                 (B1) (B2) (B2) (B2) (B2) (B2) (B2) (B2) (B2) (B2)
 Keep R1 ints in memory in symmetry-blocked form, NReq=1483476.
 Requested convergence on RMS density matrix=1.00D-08 within 128 cycles.
 Requested convergence on MAX density matrix=1.00D-06.
 Requested convergence on             energy=1.00D-06.
 No special actions if energy rises.
 SCF Done:  E(RB3LYP) =  -548.023361968     A.U. after   12 cycles
            NFock= 12  Conv=0.38D-08     -V/T= 2.0041
 Calling FoFJK, ICntrl=      2127 FMM=F ISym2X=1 I1Cent= 0 IOpClX= 0 NMat=1 NMatS=1 NMatT=0.
 ***** Axes restored to original set *****
 -------------------------------------------------------------------
 Center     Atomic                   Forces (Hartrees/Bohr)
 Number     Number              X              Y              Z
 -------------------------------------------------------------------
      1       16           0.044357370    0.000000000    0.041454937
      2        8          -0.000000005    0.000000000   -0.044458970
      3        8          -0.044357365    0.000000000    0.003004033
 -------------------------------------------------------------------
 Cartesian Forces:  Max     0.044458970 RMS     0.029134340
 -----------------------------------------------------------------------------------------------
                       Internal Coordinate Forces (Hartree/Bohr or radian)
  Cent   Atom   N1       Length/X         N2         Alpha/Y        N3         Beta/Z          J
 -----------------------------------------------------------------------------------------------
      1  S 
      2  O        1  -0.044459(     1)
      3  O        1  -0.044459(     2)      2   0.000000(     3)
 -----------------------------------------------------------------------------------------------
 Internal  Forces:  Max     0.044458970 RMS     0.036300597

 GradGradGradGradGradGradGradGradGradGradGradGradGradGradGradGradGradGrad
 Berny optimization.
 Search for a local minimum.
 Step number   3 out of a maximum of   20 on scan point    21 out of    21
 All quantities printed in internal units (Hartrees-Bohrs-Radians)
 Update second derivatives using D2CorN and points    1    3
 DE= -1.98D-07 DEPred=-1.98D-07 R= 1.00D+00
 Trust test= 1.00D+00 RLast= 4.06D-03 DXMaxT set to 3.00D-01
 The second derivative matrix:
                          DSO       ASO
           DSO         35.18033
           ASO          0.00178   0.02407
 ITU=  0  1  0
     Eigenvalues ---    0.024071000.00000
 RFO step:  Lambda= 0.00000000D+00 EMin= 2.40676636D-02
 Quartic linear search produced a step of -0.00028.
 Variable       Old X    -DE/DX   Delta X   Delta X   Delta X     New X
                                 (Linear)    (Quad)   (Total)
   DSO        5.66918  -0.08892   0.00000   0.00000   0.00000   5.66918
   ASO        1.63842   0.00000   0.00000   0.00000   0.00000   1.63842
         Item               Value     Threshold  Converged?
 Maximum Force            0.000000     0.000450     YES
 RMS     Force            0.000000     0.000300     YES
 Maximum Displacement     0.000001     0.001800     YES
 RMS     Displacement     0.000001     0.001200     YES
 Predicted change in Energy=-1.578206D-14
 Optimization completed.
    -- Stationary point found.
                       ----------------------------
                       !   Optimized Parameters   !
                       ! (Angstroms and Degrees)  !
 ----------------------                            ----------------------
 !      Name          Value   Derivative information (Atomic Units)     !
 ------------------------------------------------------------------------
 !       DSO         3.0      -DE/DX =   -0.0889                        !
 !       ASO        93.8744   -DE/DX =    0.0                           !
 ------------------------------------------------------------------------
 GradGradGradGradGradGradGradGradGradGradGradGradGradGradGradGradGradGrad

 Summary of Optimized Potential Surface Scan
                           1         2         3         4         5
     Eigenvalues --  -547.06711-547.87349-548.29430-548.49511-548.57148
           DSO          1.00000   1.10000   1.20000   1.30000   1.40000
           ASO        130.89483 127.14863 124.01095 121.61929 119.86867
                           6         7         8         9        10
     Eigenvalues --  -548.57916-548.55066-548.50467-548.45167-548.39754
           DSO          1.50000   1.60000   1.70000   1.80000   1.90000
           ASO        118.54771 117.35469 116.09926 114.66132 112.97596
                          11        12        13        14        15
     Eigenvalues --  -548.34531-548.29644-548.25154-548.21076-548.17396
           DSO          2.00000   2.10000   2.20000   2.30000   2.40000
           ASO        111.13333 109.12888 106.98783 104.77389 102.58051
                          16        17        18        19        20
     Eigenvalues --  -548.14094-548.11147-548.08521-548.06192-548.04138
           DSO          2.50000   2.60000   2.70000   2.80000   2.90000
           ASO        100.49054  98.52509  97.02035  95.92889  94.83318
                          21
     Eigenvalues --  -548.02336
           DSO          3.00000
           ASO         93.87436
 ---------------------------------------------------------------------------------------------------
                            Z-MATRIX (ANGSTROMS AND DEGREES)
   CD    Cent   Atom    N1       Length/X        N2       Alpha/Y        N3        Beta/Z          J
 ---------------------------------------------------------------------------------------------------
      1      1  S 
      2      2  O        1   3.000000(     1)
      3      3  O        1   3.000000(     2)      2   93.874(     3)
 ---------------------------------------------------------------------------------------------------
                         Z-Matrix orientation:                         
 ---------------------------------------------------------------------
 Center     Atomic      Atomic             Coordinates (Angstroms)
 Number     Number       Type             X           Y           Z
 ---------------------------------------------------------------------
      1         16           0        0.000000    0.000000    0.000000
      2          8           0        0.000000    0.000000    3.000000
      3          8           0        2.993144    0.000000   -0.202706
 ---------------------------------------------------------------------
                    Distance matrix (angstroms):
                    1          2          3
     1  S    0.000000
     2  O    3.000000   0.000000
     3  O    3.000000   4.383633   0.000000
 Stoichiometry    O2S
 Framework group  C2V[C2(S),SGV(O2)]
 Deg. of freedom     2
 Full point group                 C2V     NOp   4
 Largest Abelian subgroup         C2V     NOp   4
 Largest concise Abelian subgroup C2      NOp   2
                         Standard orientation:                         
 ---------------------------------------------------------------------
 Center     Atomic      Atomic             Coordinates (Angstroms)
 Number     Number       Type             X           Y           Z
 ---------------------------------------------------------------------
      1         16           0        0.000000    0.000000    1.024200
      2          8           0        0.000000    2.191816   -1.024200
      3          8           0        0.000000   -2.191816   -1.024200
 ---------------------------------------------------------------------
 Rotational constants (GHZ):      7.5322813      3.2884928      2.2891018

 **********************************************************************

            Population analysis using the SCF density.

 **********************************************************************

 Orbital symmetries:
       Occupied  (A1) (A1) (B2) (A1) (B1) (B2) (A1) (A1) (B2) (A1)
                 (B2) (A1) (B1) (A1) (B2) (A2)
       Virtual   (B1) (A1) (B2) (A1) (B1) (B2) (A1) (B2) (A1) (A2)
                 (B1) (A1) (A2) (A1) (B1) (B2) (B2) (A1) (B2) (A1)
                 (A2) (B1) (B2) (A1) (B2) (A1) (A2) (B1) (B2) (A1)
 The electronic state is 1-A1.
 Alpha  occ. eigenvalues --  -89.01810 -19.27265 -19.27264  -8.08167  -6.04302
 Alpha  occ. eigenvalues --   -6.04183  -6.04138  -0.92144  -0.92114  -0.74434
 Alpha  occ. eigenvalues --   -0.34833  -0.34679  -0.33601  -0.33284  -0.33215
 Alpha  occ. eigenvalues --   -0.32124
 Alpha virt. eigenvalues --   -0.28734  -0.25661  -0.25490   0.23488   0.30843
 Alpha virt. eigenvalues --    0.33423   0.33650   0.65694   0.66760   0.67434
 Alpha virt. eigenvalues --    0.67488   0.67740   0.85529   0.86500   0.86649
 Alpha virt. eigenvalues --    0.86672   0.89778   0.90002   1.04273   1.10718
 Alpha virt. eigenvalues --    1.75202   1.75529   1.75729   1.76261   1.76883
 Alpha virt. eigenvalues --    1.77171   1.78163   1.78172   1.78526   1.78717
          Condensed to atoms (all electrons):
               1          2          3
     1  S   15.674450   0.076634   0.076634
     2  O    0.076634   8.009563  -0.000056
     3  O    0.076634  -0.000056   8.009563
 Mulliken charges:
               1
     1  S    0.172282
     2  O   -0.086141
     3  O   -0.086141
 Sum of Mulliken charges =   0.00000
 Mulliken charges with hydrogens summed into heavy atoms:
               1
     1  S    0.172282
     2  O   -0.086141
     3  O   -0.086141
 Electronic spatial extent (au):  <R**2>=            447.0435
 Charge=              0.0000 electrons
 Dipole moment (field-independent basis, Debye):
    X=              0.0000    Y=              0.0000    Z=              2.0537  Tot=              2.0537
 Quadrupole moment (field-independent basis, Debye-Ang):
   XX=            -22.5830   YY=            -26.3567   ZZ=            -21.9193
   XY=              0.0000   XZ=              0.0000   YZ=              0.0000
 Traceless Quadrupole moment (field-independent basis, Debye-Ang):
   XX=              1.0367   YY=             -2.7370   ZZ=              1.7004
   XY=              0.0000   XZ=              0.0000   YZ=              0.0000
 Octapole moment (field-independent basis, Debye-Ang**2):
  XXX=              0.0000  YYY=              0.0000  ZZZ=             -3.9820  XYY=              0.0000
  XXY=              0.0000  XXZ=             -1.5807  XZZ=              0.0000  YZZ=              0.0000
  YYZ=             -5.1701  XYZ=              0.0000
 Hexadecapole moment (field-independent basis, Debye-Ang**3):
 XXXX=            -22.3527 YYYY=           -327.1926 ZZZZ=           -162.7508 XXXY=              0.0000
 XXXZ=              0.0000 YYYX=              0.0000 YYYZ=              0.0000 ZZZX=              0.0000
 ZZZY=              0.0000 XXYY=            -57.4309 XXZZ=            -30.7104 YYZZ=            -70.9731
 XXYZ=              0.0000 YYXZ=              0.0000 ZZXY=              0.0000
 N-N= 5.288231671217D+01 E-N=-1.406486575718D+03  KE= 5.458114735119D+02
 Symmetry A1   KE= 3.932825636694D+02
 Symmetry A2   KE= 4.942008435996D+00
 Symmetry B1   KE= 3.919123008702D+01
 Symmetry B2   KE= 1.083956713195D+02
 1\1\GINC-DNAS-NODE18\Scan\RB3LYP\6-31G(d)\O2S1\GVALLVER\18-Sep-2015\1\
 \# B3LYP/6-31G* 5d opt=z-matrix\\SO2 molecule\\0,1\S\O,1,DSO\O,1,DSO,2
 ,ASO\\DSO=3.,s,20,0.1\ASO=93.87435707\\Version=EM64L-G09RevD.01\State=
 1-A1\HF=-547.0671099,-547.8734923,-548.2942975,-548.4951109,-548.57147
 64,-548.5791629,-548.5506641,-548.5046749,-548.451675,-548.3975436,-54
 8.3453096,-548.296436,-548.2515379,-548.2107596,-548.1739622,-548.1409
 444,-548.1114673,-548.0852133,-548.0619229,-548.041379,-548.023362\RMS
 D=1.774e-09,4.063e-09,5.849e-09,3.251e-09,3.882e-09,5.646e-09,1.202e-0
 9,2.247e-09,3.890e-09,5.941e-09,8.482e-09,3.549e-09,2.856e-09,6.537e-0
 9,2.411e-09,4.106e-09,6.919e-09,4.644e-09,8.078e-09,1.880e-09,3.822e-0
 9\PG=C02V [C2(S1),SGV(O2)]\\@


 DON'T WORRY CHARLIE BROWN...WE LEARN MORE FROM LOSING  THAN WE DO FROM WINNING.
 THEN THAT MAKES ME THE SMARTEST PERSON IN THE WORLD...
 CHARLES SCHULZ 'PEANUTS'
 Job cpu time:       0 days  0 hours  1 minutes 46.4 seconds.
 File lengths (MBytes):  RWF=      5 Int=      0 D2E=      0 Chk=      1 Scr=      1
 Normal termination of Gaussian 09 at Fri Sep 18 17:41:19 2015.
 Fin  execution du job  : ven. sept. 18 17:41:19 CEST 2015
