Automatically generated mesh
     108
Reciprocal lattice
    0.00000000000000    0.00000000000000    0.00000000000000             1
    0.16666666666667   -0.00000000000000    0.00000000000000             1
    0.33333333333333   -0.00000000000000    0.00000000000000             1
    0.50000000000000    0.00000000000000    0.00000000000000             1
   -0.33333333333333    0.00000000000000    0.00000000000000             1
   -0.16666666666667    0.00000000000000    0.00000000000000             1
   -0.00000000000000    0.16666666666667    0.00000000000000             1
    0.16666666666667    0.16666666666667    0.00000000000000             1
    0.33333333333333    0.16666666666667    0.00000000000000             1
    0.50000000000000    0.16666666666667    0.00000000000000             1
   -0.33333333333333    0.16666666666667    0.00000000000000             1
   -0.16666666666667    0.16666666666667    0.00000000000000             1
   -0.00000000000000    0.33333333333333    0.00000000000000             1
    0.16666666666667    0.33333333333333    0.00000000000000             1
    0.33333333333333    0.33333333333333    0.00000000000000             1
    0.50000000000000    0.33333333333333    0.00000000000000             1
   -0.33333333333333    0.33333333333333    0.00000000000000             1
   -0.16666666666667    0.33333333333333    0.00000000000000             1
    0.00000000000000    0.50000000000000    0.00000000000000             1
    0.16666666666667    0.50000000000000    0.00000000000000             1
    0.33333333333333    0.50000000000000    0.00000000000000             1
    0.50000000000000    0.50000000000000    0.00000000000000             1
   -0.33333333333333    0.50000000000000    0.00000000000000             1
   -0.16666666666667    0.50000000000000    0.00000000000000             1
    0.00000000000000   -0.33333333333333    0.00000000000000             1
    0.16666666666667   -0.33333333333333    0.00000000000000             1
    0.33333333333333   -0.33333333333333    0.00000000000000             1
    0.50000000000000   -0.33333333333333    0.00000000000000             1
   -0.33333333333333   -0.33333333333333    0.00000000000000             1
   -0.16666666666667   -0.33333333333333    0.00000000000000             1
    0.00000000000000   -0.16666666666667    0.00000000000000             1
    0.16666666666667   -0.16666666666667    0.00000000000000             1
    0.33333333333333   -0.16666666666667    0.00000000000000             1
    0.50000000000000   -0.16666666666667    0.00000000000000             1
   -0.33333333333333   -0.16666666666667    0.00000000000000             1
   -0.16666666666667   -0.16666666666667    0.00000000000000             1
    0.00000000000000    0.00000000000000    0.33333333333333             1
    0.16666666666667   -0.00000000000000    0.33333333333333             1
    0.33333333333333   -0.00000000000000    0.33333333333333             1
    0.50000000000000    0.00000000000000    0.33333333333333             1
   -0.33333333333333    0.00000000000000    0.33333333333333             1
   -0.16666666666667    0.00000000000000    0.33333333333333             1
   -0.00000000000000    0.16666666666667    0.33333333333333             1
    0.16666666666667    0.16666666666667    0.33333333333333             1
    0.33333333333333    0.16666666666667    0.33333333333333             1
    0.50000000000000    0.16666666666667    0.33333333333333             1
   -0.33333333333333    0.16666666666667    0.33333333333333             1
   -0.16666666666667    0.16666666666667    0.33333333333333             1
   -0.00000000000000    0.33333333333333    0.33333333333333             1
    0.16666666666667    0.33333333333333    0.33333333333333             1
    0.33333333333333    0.33333333333333    0.33333333333333             1
    0.50000000000000    0.33333333333333    0.33333333333333             1
   -0.33333333333333    0.33333333333333    0.33333333333333             1
   -0.16666666666667    0.33333333333333    0.33333333333333             1
    0.00000000000000    0.50000000000000    0.33333333333333             1
    0.16666666666667    0.50000000000000    0.33333333333333             1
    0.33333333333333    0.50000000000000    0.33333333333333             1
    0.50000000000000    0.50000000000000    0.33333333333333             1
   -0.33333333333333    0.50000000000000    0.33333333333333             1
   -0.16666666666667    0.50000000000000    0.33333333333333             1
    0.00000000000000   -0.33333333333333    0.33333333333333             1
    0.16666666666667   -0.33333333333333    0.33333333333333             1
    0.33333333333333   -0.33333333333333    0.33333333333333             1
    0.50000000000000   -0.33333333333333    0.33333333333333             1
   -0.33333333333333   -0.33333333333333    0.33333333333333             1
   -0.16666666666667   -0.33333333333333    0.33333333333333             1
    0.00000000000000   -0.16666666666667    0.33333333333333             1
    0.16666666666667   -0.16666666666667    0.33333333333333             1
    0.33333333333333   -0.16666666666667    0.33333333333333             1
    0.50000000000000   -0.16666666666667    0.33333333333333             1
   -0.33333333333333   -0.16666666666667    0.33333333333333             1
   -0.16666666666667   -0.16666666666667    0.33333333333333             1
    0.00000000000000    0.00000000000000   -0.33333333333333             1
    0.16666666666667   -0.00000000000000   -0.33333333333333             1
    0.33333333333333   -0.00000000000000   -0.33333333333333             1
    0.50000000000000    0.00000000000000   -0.33333333333333             1
   -0.33333333333333    0.00000000000000   -0.33333333333333             1
   -0.16666666666667    0.00000000000000   -0.33333333333333             1
   -0.00000000000000    0.16666666666667   -0.33333333333333             1
    0.16666666666667    0.16666666666667   -0.33333333333333             1
    0.33333333333333    0.16666666666667   -0.33333333333333             1
    0.50000000000000    0.16666666666667   -0.33333333333333             1
   -0.33333333333333    0.16666666666667   -0.33333333333333             1
   -0.16666666666667    0.16666666666667   -0.33333333333333             1
   -0.00000000000000    0.33333333333333   -0.33333333333333             1
    0.16666666666667    0.33333333333333   -0.33333333333333             1
    0.33333333333333    0.33333333333333   -0.33333333333333             1
    0.50000000000000    0.33333333333333   -0.33333333333333             1
   -0.33333333333333    0.33333333333333   -0.33333333333333             1
   -0.16666666666667    0.33333333333333   -0.33333333333333             1
    0.00000000000000    0.50000000000000   -0.33333333333333             1
    0.16666666666667    0.50000000000000   -0.33333333333333             1
    0.33333333333333    0.50000000000000   -0.33333333333333             1
    0.50000000000000    0.50000000000000   -0.33333333333333             1
   -0.33333333333333    0.50000000000000   -0.33333333333333             1
   -0.16666666666667    0.50000000000000   -0.33333333333333             1
    0.00000000000000   -0.33333333333333   -0.33333333333333             1
    0.16666666666667   -0.33333333333333   -0.33333333333333             1
    0.33333333333333   -0.33333333333333   -0.33333333333333             1
    0.50000000000000   -0.33333333333333   -0.33333333333333             1
   -0.33333333333333   -0.33333333333333   -0.33333333333333             1
   -0.16666666666667   -0.33333333333333   -0.33333333333333             1
    0.00000000000000   -0.16666666666667   -0.33333333333333             1
    0.16666666666667   -0.16666666666667   -0.33333333333333             1
    0.33333333333333   -0.16666666666667   -0.33333333333333             1
    0.50000000000000   -0.16666666666667   -0.33333333333333             1
   -0.33333333333333   -0.16666666666667   -0.33333333333333             1
   -0.16666666666667   -0.16666666666667   -0.33333333333333             1
