Ge    ONCVPSP  r_core=  2.83  2.83  2.83
     32.0000      4.0000      140719    zatom,zion,pspd
     8     2     2     4   401     0    pspcod,pspxc,lmax,lloc,mmax,r2well
  4.00000000  0.50000000  0.00000000    rchrg fchrg qchrg
     2     2     2     0     0    nproj
     0                 extension_switch
   0                         2.1495260994307D+00 -7.2207737424025D-02
     1  0.0000000000000D+00 -0.0000000000000D+00 -0.0000000000000D+00
     2  1.0000000000000D-02 -2.8248496917936D-02 -4.3559378402227D-02
     3  2.0000000000000D-02 -5.6482041847815D-02 -8.7019423983395D-02
