H     ONCVPSP  r_core=  1.21  0.71
1.0000      1.0000      150126    zatom,zion,pspd
8      11   1     1   300     0    pspcod,pspxc,lmax,lloc,mmax,r2well
2.99000000  0.00000000  0.00000000    rchrg fchrg qchrg
2     0     0     0     0    nproj
0                 extension_switch
0                         6.7730316847580D+01 -7.0776100035204D+00
1  0.0000000000000D+00 -0.0000000000000D+00 -0.0000000000000D+00
2  1.0000000000000D-02 -4.4211548164377D-01 -3.2595495177458D-01
3  2.0000000000000D-02 -8.6610215373607D-01 -6.3885489914122D-01
4  3.0000000000000D-02 -1.2547684112347D+00 -9.2645242613321D-01
5  4.0000000000000D-02 -1.5927225486945D+00 -1.1780464346440D+00
6  5.0000000000000D-02 -1.8670961544851D+00 -1.3850920933925D+00
7  6.0000000000000D-02 -2.0680809303898D+00 -1.5416382052644D+00
8  7.0000000000000D-02 -2.1892536743177D+00 -1.6445684697307D+00
9  8.0000000000000D-02 -2.2276868156157D+00 -1.6936440290985D+00
10  9.0000000000000D-02 -2.1838617321105D+00 -1.6913630732400D+00
11  1.0000000000000D-01 -2.0614166666924D+00 -1.6426669130463D+00
12  1.1000000000000D-01 -1.8667693593032D+00 -1.5545298643256D+00
13  1.2000000000000D-01 -1.6086566975645D+00 -1.4354726814568D+00
14  1.3000000000000D-01 -1.2976309104427D+00 -1.2950371909370D+00
15  1.4000000000000D-01 -9.4554585048684D-01 -1.1432548344602D+00
16  1.5000000000000D-01 -5.6505877194725D-01 -9.9013490253487D-01
17  1.6000000000000D-01 -1.6916558316034D-01 -8.4519213046824D-01
18  1.7000000000000D-01  2.2922069386670D-01 -7.1702628471287D-01
19  1.8000000000000D-01  6.1764319448838D-01 -6.1296284325163D-01
20  1.9000000000000D-01  9.8442681243157D-01 -5.3875907976330D-01
21  2.0000000000000D-01  1.3189576611496D+00 -4.9837951192128D-01
22  2.1000000000000D-01  1.6119217219027D+00 -4.9384130596254D-01
23  2.2000000000000D-01  1.8555039849345D+00 -5.2513373913238D-01
24  2.3000000000000D-01  2.0435527050647D+00 -5.9021212989737D-01
25  2.4000000000000D-01  2.1717083321109D+00 -6.8506968117847D-01
26  2.5000000000000D-01  2.2374984106006D+00 -8.0388864754468D-01
27  2.6000000000000D-01  2.2403910123267D+00 -9.3927302142506D-01
28  2.7000000000000D-01  2.1818084930659D+00 -1.0825608816787D+00
29  2.8000000000000D-01  2.0650891514480D+00 -1.2242122911835D+00
30  2.9000000000000D-01  1.8953949358773D+00 -1.3542639043601D+00
31  3.0000000000000D-01  1.6795575928483D+00 -1.4628356629050D+00
32  3.1000000000000D-01  1.4258598574809D+00 -1.5406682202878D+00
33  3.2000000000000D-01  1.1437524458432D+00 -1.5796606253196D+00
34  3.3000000000000D-01  8.4350730224921D-01 -1.5733874389383D+00
35  3.4000000000000D-01  5.3582345167859D-01 -1.5175351397893D+00
36  3.5000000000000D-01  2.3139429404595D-01 -1.4102468626944D+00
37  3.6000000000000D-01 -5.9537633266833D-02 -1.2523239062602D+00
38  3.7000000000000D-01 -3.2761934089290D-01 -1.0472705370137D+00
39  3.8000000000000D-01 -5.6477755525105D-01 -8.0115231337370D-01
40  3.9000000000000D-01 -7.6455489377787D-01 -5.2229099070165D-01
41  4.0000000000000D-01 -9.2235476013129D-01 -2.2079403584230D-01
42  4.1000000000000D-01 -1.0355737967631D+00  9.2042126171104D-02
43  4.2000000000000D-01 -1.1036277301143D+00  4.0440736877097D-01
44  4.3000000000000D-01 -1.1278625151832D+00  7.0468340727141D-01
45  4.4000000000000D-01 -1.1113630940655D+00  9.8212374975266D-01
46  4.5000000000000D-01 -1.0586780591075D+00  1.2274570171874D+00
47  4.6000000000000D-01 -9.7548408660386D-01  1.4333712918004D+00
48  4.7000000000000D-01 -8.6821785606577D-01  1.5948459679454D+00
49  4.8000000000000D-01 -7.4370020610439D-01  1.7093302450163D+00
50  4.9000000000000D-01 -6.0877162535570D-01  1.7767535292775D+00
51  5.0000000000000D-01 -4.6997184716138D-01  1.7993628211672D+00
52  5.1000000000000D-01 -3.3327533685869D-01  1.7814391450529D+00
53  5.2000000000000D-01 -2.0385952049100D-01  1.7289240925482D+00
54  5.3000000000000D-01 -8.5965039193732D-02  1.6489320504542D+00
55  5.4000000000000D-01  1.7173959750548D-02  1.5492582523710D+00
56  5.5000000000000D-01  1.0340127552035D-01  1.4378345856964D+00
57  5.6000000000000D-01  1.7155832661608D-01  1.3222658627733D+00
58  5.7000000000000D-01  2.2146392036554D-01  1.2093199463792D+00
59  5.8000000000000D-01  2.5376406582843D-01  1.1046122243771D+00
60  5.9000000000000D-01  2.6983327523931D-01  1.0122137151671D+00
61  6.0000000000000D-01  2.7159232448604D-01  9.3456590208010D-01
62  6.1000000000000D-01  2.6136511096675D-01  8.7226683207189D-01
63  6.2000000000000D-01  2.4170357386552D-01  8.2419721360689D-01
64  6.3000000000000D-01  2.1523491075854D-01  7.8761499843629D-01
65  6.4000000000000D-01  1.8450798356527D-01  7.5838094128796D-01
66  6.5000000000000D-01  1.5187897090689D-01  7.3132889963597D-01
67  6.6000000000000D-01  1.1940523082809D-01  7.0064318981866D-01
68  6.7000000000000D-01  8.8756999202204D-02  6.6033059685728D-01
69  6.8000000000000D-01  6.1189767123301D-02  6.0469431711141D-01
70  6.9000000000000D-01  3.7525387677733D-02  5.2878918965645D-01
71  7.0000000000000D-01  1.8214586166504D-02  4.2841480912326D-01
72  7.1000000000000D-01  2.6614501986301D-03  3.0607237681689D-01
73  7.2000000000000D-01 -1.1542395728128D-02  1.8017481707300D-01
74  7.3000000000000D-01 -2.5132279412123D-02  5.9807290495770D-02
75  7.4000000000000D-01 -3.7765421859188D-02 -5.3973166300715D-02
76  7.5000000000000D-01 -4.9209452480115D-02 -1.5969277616998D-01
77  7.6000000000000D-01 -5.9264702684589D-02 -2.5606328467357D-01
78  7.7000000000000D-01 -6.7765985011970D-02 -3.4200171077097D-01
79  7.8000000000000D-01 -7.4584768904604D-02 -4.1664308780293D-01
80  7.9000000000000D-01 -7.9630915473279D-02 -4.7935082981494D-01
81  8.0000000000000D-01 -8.2853446309743D-02 -5.2972159450337D-01
82  8.1000000000000D-01 -8.4240508071477D-02 -5.6758560491305D-01
83  8.2000000000000D-01 -8.3818546172526D-02 -5.9300249717776D-01
84  8.3000000000000D-01 -8.1650716925115D-02 -6.0625285081509D-01
85  8.4000000000000D-01 -7.7834582638879D-02 -6.0782564293188D-01
86  8.5000000000000D-01 -7.2499148245589D-02 -5.9840194632867D-01
87  8.6000000000000D-01 -6.5801310736679D-02 -5.7883526283088D-01
88  8.7000000000000D-01 -5.7921803887573D-02 -5.5012894611058D-01
89  8.8000000000000D-01 -4.9060730235203D-02 -5.1341122173555D-01
90  8.9000000000000D-01 -3.9432779919241D-02 -4.6990835562449D-01
91  9.0000000000000D-01 -2.9262241656338D-02 -4.2091655444995D-01
92  9.1000000000000D-01 -1.8777914641065D-02 -3.6777320217739D-01
93  9.2000000000000D-01 -8.2080314000514D-03 -3.1182804493454D-01
94  9.3000000000000D-01  2.2246995946147D-03 -2.5441493079232D-01
95  9.4000000000000D-01  1.2307826578487D-02 -1.9682469111470D-01
96  9.5000000000000D-01  2.1842802352945D-02 -1.4028387845362D-01
97  9.6000000000000D-01  3.0650965660928D-02 -8.5920788569575D-02
98  9.7000000000000D-01  3.8575662424085D-02 -3.4752244476344D-02
99  9.8000000000000D-01  4.5485370421038D-02  1.2334891814301D-02
100  9.9000000000000D-01  5.1276122950116D-02  5.4598454628584D-02
101  1.0000000000000D+00  5.5873168999919D-02  9.1451547767866D-02
102  1.0100000000000D+00  5.9231946972579D-02  1.2246935637729D-01
103  1.0200000000000D+00  6.1337080290584D-02  1.4738467262100D-01
104  1.0300000000000D+00  6.2205993789595D-02  1.6611022175560D-01
105  1.0400000000000D+00  6.1884600315045D-02  1.7871590152101D-01
106  1.0500000000000D+00  6.0445703829534D-02  1.8542134617895D-01
107  1.0600000000000D+00  5.7987010404795D-02  1.8658645118471D-01
108  1.0700000000000D+00  5.4627861669018D-02  1.8269401631628D-01
109  1.0800000000000D+00  5.0507929964249D-02  1.7434545200954D-01
110  1.0900000000000D+00  4.5781625567156D-02  1.6223110764485D-01
111  1.1000000000000D+00  4.0613630761473D-02  1.4710585515061D-01
112  1.1100000000000D+00  3.5175527115988D-02  1.2977163954506D-01
113  1.1200000000000D+00  2.9642639378982D-02  1.1106075431629D-01
114  1.1300000000000D+00  2.4186165065368D-02  9.1797486759336D-02
115  1.1400000000000D+00  1.8970963002501D-02  7.2782398114917D-02
116  1.1500000000000D+00  1.4152646226811D-02  5.4777569635569D-02
117  1.1600000000000D+00  9.8736669444646D-03  3.8486464519889D-02
118  1.1700000000000D+00  6.2533542558126D-03  2.4503369086701D-02
119  1.1800000000000D+00  3.3921813143244D-03  1.3332180969619D-02
120  1.1900000000000D+00  1.3717640676468D-03  5.3861778110227D-03
121  1.2000000000000D+00  2.9666175912314D-04  1.1371075342560D-03
122  1.2100000000000D+00 -5.3053172952294D-05 -2.4138738444753D-04
123  1.2200000000000D+00 -2.2177465502898D-05 -9.2119820675237D-05
124  1.2300000000000D+00  6.9063495634191D-07  5.0772065706169D-06
125  1.2400000000000D+00  0.0000000000000D+00  0.0000000000000D+00
126  1.2500000000000D+00  0.0000000000000D+00  0.0000000000000D+00
127  1.2600000000000D+00  0.0000000000000D+00  0.0000000000000D+00
128  1.2700000000000D+00  0.0000000000000D+00  0.0000000000000D+00
129  1.2800000000000D+00  0.0000000000000D+00  0.0000000000000D+00
130  1.2900000000000D+00  0.0000000000000D+00  0.0000000000000D+00
131  1.3000000000000D+00  0.0000000000000D+00  0.0000000000000D+00
132  1.3100000000000D+00  0.0000000000000D+00  0.0000000000000D+00
133  1.3200000000000D+00  0.0000000000000D+00  0.0000000000000D+00
134  1.3300000000000D+00  0.0000000000000D+00  0.0000000000000D+00
135  1.3400000000000D+00  0.0000000000000D+00  0.0000000000000D+00
136  1.3500000000000D+00  0.0000000000000D+00  0.0000000000000D+00
137  1.3600000000000D+00  0.0000000000000D+00  0.0000000000000D+00
138  1.3700000000000D+00  0.0000000000000D+00  0.0000000000000D+00
139  1.3800000000000D+00  0.0000000000000D+00  0.0000000000000D+00
140  1.3900000000000D+00  0.0000000000000D+00  0.0000000000000D+00
141  1.4000000000000D+00  0.0000000000000D+00  0.0000000000000D+00
142  1.4100000000000D+00  0.0000000000000D+00  0.0000000000000D+00
143  1.4200000000000D+00  0.0000000000000D+00  0.0000000000000D+00
144  1.4300000000000D+00  0.0000000000000D+00  0.0000000000000D+00
145  1.4400000000000D+00  0.0000000000000D+00  0.0000000000000D+00
146  1.4500000000000D+00  0.0000000000000D+00  0.0000000000000D+00
147  1.4600000000000D+00  0.0000000000000D+00  0.0000000000000D+00
148  1.4700000000000D+00  0.0000000000000D+00  0.0000000000000D+00
149  1.4800000000000D+00  0.0000000000000D+00  0.0000000000000D+00
150  1.4900000000000D+00  0.0000000000000D+00  0.0000000000000D+00
151  1.5000000000000D+00  0.0000000000000D+00  0.0000000000000D+00
152  1.5100000000000D+00  0.0000000000000D+00  0.0000000000000D+00
153  1.5200000000000D+00  0.0000000000000D+00  0.0000000000000D+00
154  1.5300000000000D+00  0.0000000000000D+00  0.0000000000000D+00
155  1.5400000000000D+00  0.0000000000000D+00  0.0000000000000D+00
156  1.5500000000000D+00  0.0000000000000D+00  0.0000000000000D+00
157  1.5600000000000D+00  0.0000000000000D+00  0.0000000000000D+00
158  1.5700000000000D+00  0.0000000000000D+00  0.0000000000000D+00
159  1.5800000000000D+00  0.0000000000000D+00  0.0000000000000D+00
160  1.5900000000000D+00  0.0000000000000D+00  0.0000000000000D+00
161  1.6000000000000D+00  0.0000000000000D+00  0.0000000000000D+00
162  1.6100000000000D+00  0.0000000000000D+00  0.0000000000000D+00
163  1.6200000000000D+00  0.0000000000000D+00  0.0000000000000D+00
164  1.6300000000000D+00  0.0000000000000D+00  0.0000000000000D+00
165  1.6400000000000D+00  0.0000000000000D+00  0.0000000000000D+00
166  1.6500000000000D+00  0.0000000000000D+00  0.0000000000000D+00
167  1.6600000000000D+00  0.0000000000000D+00  0.0000000000000D+00
168  1.6700000000000D+00  0.0000000000000D+00  0.0000000000000D+00
169  1.6800000000000D+00  0.0000000000000D+00  0.0000000000000D+00
170  1.6900000000000D+00  0.0000000000000D+00  0.0000000000000D+00
171  1.7000000000000D+00  0.0000000000000D+00  0.0000000000000D+00
172  1.7100000000000D+00  0.0000000000000D+00  0.0000000000000D+00
173  1.7200000000000D+00  0.0000000000000D+00  0.0000000000000D+00
174  1.7300000000000D+00  0.0000000000000D+00  0.0000000000000D+00
175  1.7400000000000D+00  0.0000000000000D+00  0.0000000000000D+00
176  1.7500000000000D+00  0.0000000000000D+00  0.0000000000000D+00
177  1.7600000000000D+00  0.0000000000000D+00  0.0000000000000D+00
178  1.7700000000000D+00  0.0000000000000D+00  0.0000000000000D+00
179  1.7800000000000D+00  0.0000000000000D+00  0.0000000000000D+00
180  1.7900000000000D+00  0.0000000000000D+00  0.0000000000000D+00
181  1.8000000000000D+00  0.0000000000000D+00  0.0000000000000D+00
182  1.8100000000000D+00  0.0000000000000D+00  0.0000000000000D+00
183  1.8200000000000D+00  0.0000000000000D+00  0.0000000000000D+00
184  1.8300000000000D+00  0.0000000000000D+00  0.0000000000000D+00
185  1.8400000000000D+00  0.0000000000000D+00  0.0000000000000D+00
186  1.8500000000000D+00  0.0000000000000D+00  0.0000000000000D+00
187  1.8600000000000D+00  0.0000000000000D+00  0.0000000000000D+00
188  1.8700000000000D+00  0.0000000000000D+00  0.0000000000000D+00
189  1.8800000000000D+00  0.0000000000000D+00  0.0000000000000D+00
190  1.8900000000000D+00  0.0000000000000D+00  0.0000000000000D+00
191  1.9000000000000D+00  0.0000000000000D+00  0.0000000000000D+00
192  1.9100000000000D+00  0.0000000000000D+00  0.0000000000000D+00
193  1.9200000000000D+00  0.0000000000000D+00  0.0000000000000D+00
194  1.9300000000000D+00  0.0000000000000D+00  0.0000000000000D+00
195  1.9400000000000D+00  0.0000000000000D+00  0.0000000000000D+00
196  1.9500000000000D+00  0.0000000000000D+00  0.0000000000000D+00
197  1.9600000000000D+00  0.0000000000000D+00  0.0000000000000D+00
198  1.9700000000000D+00  0.0000000000000D+00  0.0000000000000D+00
199  1.9800000000000D+00  0.0000000000000D+00  0.0000000000000D+00
200  1.9900000000000D+00  0.0000000000000D+00  0.0000000000000D+00
201  2.0000000000000D+00  0.0000000000000D+00  0.0000000000000D+00
202  2.0100000000000D+00  0.0000000000000D+00  0.0000000000000D+00
203  2.0200000000000D+00  0.0000000000000D+00  0.0000000000000D+00
204  2.0300000000000D+00  0.0000000000000D+00  0.0000000000000D+00
205  2.0400000000000D+00  0.0000000000000D+00  0.0000000000000D+00
206  2.0500000000000D+00  0.0000000000000D+00  0.0000000000000D+00
207  2.0600000000000D+00  0.0000000000000D+00  0.0000000000000D+00
208  2.0700000000000D+00  0.0000000000000D+00  0.0000000000000D+00
209  2.0800000000000D+00  0.0000000000000D+00  0.0000000000000D+00
210  2.0900000000000D+00  0.0000000000000D+00  0.0000000000000D+00
211  2.1000000000000D+00  0.0000000000000D+00  0.0000000000000D+00
212  2.1100000000000D+00  0.0000000000000D+00  0.0000000000000D+00
213  2.1200000000000D+00  0.0000000000000D+00  0.0000000000000D+00
214  2.1300000000000D+00  0.0000000000000D+00  0.0000000000000D+00
215  2.1400000000000D+00  0.0000000000000D+00  0.0000000000000D+00
216  2.1500000000000D+00  0.0000000000000D+00  0.0000000000000D+00
217  2.1600000000000D+00  0.0000000000000D+00  0.0000000000000D+00
218  2.1700000000000D+00  0.0000000000000D+00  0.0000000000000D+00
219  2.1800000000000D+00  0.0000000000000D+00  0.0000000000000D+00
220  2.1900000000000D+00  0.0000000000000D+00  0.0000000000000D+00
221  2.2000000000000D+00  0.0000000000000D+00  0.0000000000000D+00
222  2.2100000000000D+00  0.0000000000000D+00  0.0000000000000D+00
223  2.2200000000000D+00  0.0000000000000D+00  0.0000000000000D+00
224  2.2300000000000D+00  0.0000000000000D+00  0.0000000000000D+00
225  2.2400000000000D+00  0.0000000000000D+00  0.0000000000000D+00
226  2.2500000000000D+00  0.0000000000000D+00  0.0000000000000D+00
227  2.2600000000000D+00  0.0000000000000D+00  0.0000000000000D+00
228  2.2700000000000D+00  0.0000000000000D+00  0.0000000000000D+00
229  2.2800000000000D+00  0.0000000000000D+00  0.0000000000000D+00
230  2.2900000000000D+00  0.0000000000000D+00  0.0000000000000D+00
231  2.3000000000000D+00  0.0000000000000D+00  0.0000000000000D+00
232  2.3100000000000D+00  0.0000000000000D+00  0.0000000000000D+00
233  2.3200000000000D+00  0.0000000000000D+00  0.0000000000000D+00
234  2.3300000000000D+00  0.0000000000000D+00  0.0000000000000D+00
235  2.3400000000000D+00  0.0000000000000D+00  0.0000000000000D+00
236  2.3500000000000D+00  0.0000000000000D+00  0.0000000000000D+00
237  2.3600000000000D+00  0.0000000000000D+00  0.0000000000000D+00
238  2.3700000000000D+00  0.0000000000000D+00  0.0000000000000D+00
239  2.3800000000000D+00  0.0000000000000D+00  0.0000000000000D+00
240  2.3900000000000D+00  0.0000000000000D+00  0.0000000000000D+00
241  2.4000000000000D+00  0.0000000000000D+00  0.0000000000000D+00
242  2.4100000000000D+00  0.0000000000000D+00  0.0000000000000D+00
243  2.4200000000000D+00  0.0000000000000D+00  0.0000000000000D+00
244  2.4300000000000D+00  0.0000000000000D+00  0.0000000000000D+00
245  2.4400000000000D+00  0.0000000000000D+00  0.0000000000000D+00
246  2.4500000000000D+00  0.0000000000000D+00  0.0000000000000D+00
247  2.4600000000000D+00  0.0000000000000D+00  0.0000000000000D+00
248  2.4700000000000D+00  0.0000000000000D+00  0.0000000000000D+00
249  2.4800000000000D+00  0.0000000000000D+00  0.0000000000000D+00
250  2.4900000000000D+00  0.0000000000000D+00  0.0000000000000D+00
251  2.5000000000000D+00  0.0000000000000D+00  0.0000000000000D+00
252  2.5100000000000D+00  0.0000000000000D+00  0.0000000000000D+00
253  2.5200000000000D+00  0.0000000000000D+00  0.0000000000000D+00
254  2.5300000000000D+00  0.0000000000000D+00  0.0000000000000D+00
255  2.5400000000000D+00  0.0000000000000D+00  0.0000000000000D+00
256  2.5500000000000D+00  0.0000000000000D+00  0.0000000000000D+00
257  2.5600000000000D+00  0.0000000000000D+00  0.0000000000000D+00
258  2.5700000000000D+00  0.0000000000000D+00  0.0000000000000D+00
259  2.5800000000000D+00  0.0000000000000D+00  0.0000000000000D+00
260  2.5900000000000D+00  0.0000000000000D+00  0.0000000000000D+00
261  2.6000000000000D+00  0.0000000000000D+00  0.0000000000000D+00
262  2.6100000000000D+00  0.0000000000000D+00  0.0000000000000D+00
263  2.6200000000000D+00  0.0000000000000D+00  0.0000000000000D+00
264  2.6300000000000D+00  0.0000000000000D+00  0.0000000000000D+00
265  2.6400000000000D+00  0.0000000000000D+00  0.0000000000000D+00
266  2.6500000000000D+00  0.0000000000000D+00  0.0000000000000D+00
267  2.6600000000000D+00  0.0000000000000D+00  0.0000000000000D+00
268  2.6700000000000D+00  0.0000000000000D+00  0.0000000000000D+00
269  2.6800000000000D+00  0.0000000000000D+00  0.0000000000000D+00
270  2.6900000000000D+00  0.0000000000000D+00  0.0000000000000D+00
271  2.7000000000000D+00  0.0000000000000D+00  0.0000000000000D+00
272  2.7100000000000D+00  0.0000000000000D+00  0.0000000000000D+00
273  2.7200000000000D+00  0.0000000000000D+00  0.0000000000000D+00
274  2.7300000000000D+00  0.0000000000000D+00  0.0000000000000D+00
275  2.7400000000000D+00  0.0000000000000D+00  0.0000000000000D+00
276  2.7500000000000D+00  0.0000000000000D+00  0.0000000000000D+00
277  2.7600000000000D+00  0.0000000000000D+00  0.0000000000000D+00
278  2.7700000000000D+00  0.0000000000000D+00  0.0000000000000D+00
279  2.7800000000000D+00  0.0000000000000D+00  0.0000000000000D+00
280  2.7900000000000D+00  0.0000000000000D+00  0.0000000000000D+00
281  2.8000000000000D+00  0.0000000000000D+00  0.0000000000000D+00
282  2.8100000000000D+00  0.0000000000000D+00  0.0000000000000D+00
283  2.8200000000000D+00  0.0000000000000D+00  0.0000000000000D+00
284  2.8300000000000D+00  0.0000000000000D+00  0.0000000000000D+00
285  2.8400000000000D+00  0.0000000000000D+00  0.0000000000000D+00
286  2.8500000000000D+00  0.0000000000000D+00  0.0000000000000D+00
287  2.8600000000000D+00  0.0000000000000D+00  0.0000000000000D+00
288  2.8700000000000D+00  0.0000000000000D+00  0.0000000000000D+00
289  2.8800000000000D+00  0.0000000000000D+00  0.0000000000000D+00
290  2.8900000000000D+00  0.0000000000000D+00  0.0000000000000D+00
291  2.9000000000000D+00  0.0000000000000D+00  0.0000000000000D+00
292  2.9100000000000D+00  0.0000000000000D+00  0.0000000000000D+00
293  2.9200000000000D+00  0.0000000000000D+00  0.0000000000000D+00
294  2.9300000000000D+00  0.0000000000000D+00  0.0000000000000D+00
295  2.9400000000000D+00  0.0000000000000D+00  0.0000000000000D+00
296  2.9500000000000D+00  0.0000000000000D+00  0.0000000000000D+00
297  2.9600000000000D+00  0.0000000000000D+00  0.0000000000000D+00
298  2.9700000000000D+00  0.0000000000000D+00  0.0000000000000D+00
299  2.9800000000000D+00  0.0000000000000D+00  0.0000000000000D+00
300  2.9900000000000D+00  0.0000000000000D+00  0.0000000000000D+00
1
1  0.0000000000000D+00  2.9867209028078D+01
2  1.0000000000000D-02  2.9650540615726D+01
3  2.0000000000000D-02  2.8971134158342D+01
4  3.0000000000000D-02  2.7860961691279D+01
5  4.0000000000000D-02  2.6351995249888D+01
6  5.0000000000000D-02  2.4486559917821D+01
7  6.0000000000000D-02  2.2315188728237D+01
8  7.0000000000000D-02  1.9894228621590D+01
9  8.0000000000000D-02  1.7283392543965D+01
10  9.0000000000000D-02  1.4543431081759D+01
11  1.0000000000000D-01  1.1734058427482D+01
12  1.1000000000000D-01  8.9122208082813D+00
13  1.2000000000000D-01  6.1307485236129D+00
14  1.3000000000000D-01  3.4373917635558D+00
15  1.4000000000000D-01  8.7420980583737D-01
16  1.5000000000000D-01 -1.5227389647424D+00
17  1.6000000000000D-01 -3.7234656732035D+00
18  1.7000000000000D-01 -5.7039439459412D+00
19  1.8000000000000D-01 -7.4458827565716D+00
20  1.9000000000000D-01 -8.9364323344294D+00
21  2.0000000000000D-01 -1.0167858791902D+01
22  2.1000000000000D-01 -1.1137222185424D+01
23  2.2000000000000D-01 -1.1846066917091D+01
24  2.3000000000000D-01 -1.2300139538340D+01
25  2.4000000000000D-01 -1.2509127243288D+01
26  2.5000000000000D-01 -1.2486416956959D+01
27  2.6000000000000D-01 -1.2248843300802D+01
28  2.7000000000000D-01 -1.1816432222336D+01
29  2.8000000000000D-01 -1.1212093647404D+01
30  2.9000000000000D-01 -1.0461260380076D+01
31  3.0000000000000D-01 -9.5914472540150D+00
32  3.1000000000000D-01 -8.6317184458610D+00
33  3.2000000000000D-01 -7.6120586011904D+00
34  3.3000000000000D-01 -6.5626519220618D+00
35  3.4000000000000D-01 -5.5130852308271D+00
36  3.5000000000000D-01 -4.4915062436958D+00
37  3.6000000000000D-01 -3.5237758699120D+00
38  3.7000000000000D-01 -2.6326557460322D+00
39  3.8000000000000D-01 -1.8371099871540D+00
40  3.9000000000000D-01 -1.1517309874999D+00
41  4.0000000000000D-01 -5.8635688817674D-01
42  4.1000000000000D-01 -1.4592512716801D-01
43  4.2000000000000D-01  1.6945876581235D-01
44  4.3000000000000D-01  3.6422216382700D-01
45  4.4000000000000D-01  4.4682405469750D-01
46  4.5000000000000D-01  4.2909029959554D-01
47  4.6000000000000D-01  3.2543455715391D-01
48  4.7000000000000D-01  1.5201883167021D-01
49  4.8000000000000D-01 -7.4088215730827D-02
50  4.9000000000000D-01 -3.3572586728114D-01
51  5.0000000000000D-01 -6.1637185524796D-01
52  5.1000000000000D-01 -9.0074901637373D-01
53  5.2000000000000D-01 -1.1753520028116D+00
54  5.3000000000000D-01 -1.4288078863960D+00
55  5.4000000000000D-01 -1.6520733086341D+00
56  5.5000000000000D-01 -1.8386440465164D+00
57  5.6000000000000D-01 -1.9844335556632D+00
58  5.7000000000000D-01 -2.0877952887738D+00
59  5.8000000000000D-01 -2.1492224240415D+00
60  5.9000000000000D-01 -2.1712051066442D+00
61  6.0000000000000D-01 -2.1578106354727D+00
62  6.1000000000000D-01 -2.1144331897078D+00
63  6.2000000000000D-01 -2.0473498110681D+00
64  6.3000000000000D-01 -1.9633685723339D+00
65  6.4000000000000D-01 -1.8694454142126D+00
66  6.5000000000000D-01 -1.7723261940401D+00
67  6.6000000000000D-01 -1.6782294558568D+00
68  6.7000000000000D-01 -1.5925392588169D+00
69  6.8000000000000D-01 -1.5196106121515D+00
70  6.9000000000000D-01 -1.4626119635503D+00
71  7.0000000000000D-01 -1.4236903397058D+00
72  7.1000000000000D-01 -1.4006109443885D+00
73  7.2000000000000D-01 -1.3822161570183D+00
74  7.3000000000000D-01 -1.3639757287308D+00
75  7.4000000000000D-01 -1.3462262237208D+00
76  7.5000000000000D-01 -1.3289482334536D+00
77  7.6000000000000D-01 -1.3121203171280D+00
78  7.7000000000000D-01 -1.2957221529659D+00
79  7.8000000000000D-01 -1.2797344588430D+00
80  7.9000000000000D-01 -1.2641389364558D+00
81  8.0000000000000D-01 -1.2489182159761D+00
82  8.1000000000000D-01 -1.2340558073831D+00
83  8.2000000000000D-01 -1.2195360579506D+00
84  8.3000000000000D-01 -1.2053441154286D+00
85  8.4000000000000D-01 -1.1914658964585D+00
86  8.5000000000000D-01 -1.1778880597335D+00
87  8.6000000000000D-01 -1.1645979833954D+00
88  8.7000000000000D-01 -1.1515837461361D+00
89  8.8000000000000D-01 -1.1388341114414D+00
90  8.9000000000000D-01 -1.1263385143909D+00
91  9.0000000000000D-01 -1.1140870504005D+00
92  9.1000000000000D-01 -1.1020704652724D+00
93  9.2000000000000D-01 -1.0902801458996D+00
94  9.3000000000000D-01 -1.0787081109685D+00
95  9.4000000000000D-01 -1.0673470010013D+00
96  9.5000000000000D-01 -1.0561900514840D+00
97  9.6000000000000D-01 -1.0452311240045D+00
98  9.7000000000000D-01 -1.0344646542123D+00
99  9.8000000000000D-01 -1.0238856399935D+00
100  9.9000000000000D-01 -1.0134896218029D+00
101  1.0000000000000D+00 -1.0032726569900D+00
102  1.0100000000000D+00 -9.9323129021165D-01
103  1.0200000000000D+00 -9.8336250161096D-01
104  1.0300000000000D+00 -9.7366372699763D-01
105  1.0400000000000D+00 -9.6413276809165D-01
106  1.0500000000000D+00 -9.5476775075680D-01
107  1.0600000000000D+00 -9.4556708176715D-01
108  1.0700000000000D+00 -9.3652939213380D-01
109  1.0800000000000D+00 -9.2765351124422D-01
110  1.0900000000000D+00 -9.1893838802118D-01
111  1.1000000000000D+00 -9.1038303023928D-01
112  1.1100000000000D+00 -9.0198646125649D-01
113  1.1200000000000D+00 -8.9374768141287D-01
114  1.1300000000000D+00 -8.8566557747212D-01
115  1.1400000000000D+00 -8.7773889784031D-01
116  1.1500000000000D+00 -8.6996622442010D-01
117  1.1600000000000D+00 -8.6234593406803D-01
118  1.1700000000000D+00 -8.5487607600749D-01
119  1.1800000000000D+00 -8.4755455317990D-01
120  1.1900000000000D+00 -8.4037909453036D-01
121  1.2000000000000D+00 -8.3334672814912D-01
122  1.2100000000000D+00 -8.2644953030225D-01
123  1.2200000000000D+00 -8.1967702022546D-01
124  1.2300000000000D+00 -8.1301475111020D-01
125  1.2400000000000D+00 -8.0645826585857D-01
126  1.2500000000000D+00 -8.0000525400638D-01
127  1.2600000000000D+00 -7.9365592868822D-01
128  1.2700000000000D+00 -7.8740691384114D-01
129  1.2800000000000D+00 -7.8125520775687D-01
130  1.2900000000000D+00 -7.7519890707174D-01
131  1.3000000000000D+00 -7.6923580900300D-01
132  1.3100000000000D+00 -7.6336374419487D-01
133  1.3200000000000D+00 -7.5758064573292D-01
134  1.3300000000000D+00 -7.5188452130441D-01
135  1.3400000000000D+00 -7.4627340536521D-01
136  1.3500000000000D+00 -7.4074541975370D-01
137  1.3600000000000D+00 -7.3529873681456D-01
138  1.3700000000000D+00 -7.2993155369608D-01
139  1.3800000000000D+00 -7.2464216654728D-01
140  1.3900000000000D+00 -7.1942888346948D-01
141  1.4000000000000D+00 -7.1429007327332D-01
142  1.4100000000000D+00 -7.0922416500763D-01
143  1.4200000000000D+00 -7.0422959292185D-01
144  1.4300000000000D+00 -6.9930488600525D-01
145  1.4400000000000D+00 -6.9444857429366D-01
146  1.4500000000000D+00 -6.8965924587885D-01
147  1.4600000000000D+00 -6.8493553179616D-01
148  1.4700000000000D+00 -6.8027607555052D-01
149  1.4800000000000D+00 -6.7567959702999D-01
150  1.4900000000000D+00 -6.7114480535827D-01
151  1.5000000000000D+00 -6.6667048580834D-01
152  1.5100000000000D+00 -6.6225542553887D-01
153  1.5200000000000D+00 -6.5789845891977D-01
154  1.5300000000000D+00 -6.5359844973725D-01
155  1.5400000000000D+00 -6.4935427910804D-01
156  1.5500000000000D+00 -6.4516488128930D-01
157  1.5600000000000D+00 -6.4102918276706D-01
158  1.5700000000000D+00 -6.3694618121445D-01
159  1.5800000000000D+00 -6.3291485001604D-01
160  1.5900000000000D+00 -6.2893423961701D-01
161  1.6000000000000D+00 -6.2500337699371D-01
162  1.6100000000000D+00 -6.2112135404601D-01
163  1.6200000000000D+00 -6.1728725018903D-01
164  1.6300000000000D+00 -6.1350019717225D-01
165  1.6400000000000D+00 -6.0975932264084D-01
166  1.6500000000000D+00 -6.0606379693571D-01
167  1.6600000000000D+00 -6.0241279185380D-01
168  1.6700000000000D+00 -5.9880551528186D-01
169  1.6800000000000D+00 -5.9524117929041D-01
170  1.6900000000000D+00 -5.9171902840235D-01
171  1.7000000000000D+00 -5.8823831131122D-01
172  1.7100000000000D+00 -5.8479830835878D-01
173  1.7200000000000D+00 -5.8139830144584D-01
174  1.7300000000000D+00 -5.7803760597860D-01
175  1.7400000000000D+00 -5.7471553388795D-01
176  1.7500000000000D+00 -5.7143143492182D-01
177  1.7600000000000D+00 -5.6818464811652D-01
178  1.7700000000000D+00 -5.6497455682568D-01
179  1.7800000000000D+00 -5.6180052455340D-01
180  1.7900000000000D+00 -5.5866196744220D-01
181  1.8000000000000D+00 -5.5555827117571D-01
182  1.8100000000000D+00 -5.5248888108293D-01
183  1.8200000000000D+00 -5.4945321100836D-01
184  1.8300000000000D+00 -5.4645072561796D-01
185  1.8400000000000D+00 -5.4348087042812D-01
186  1.8500000000000D+00 -5.4054312543909D-01
187  1.8600000000000D+00 -5.3763696821691D-01
188  1.8700000000000D+00 -5.3476189173340D-01
189  1.8800000000000D+00 -5.3191740530725D-01
190  1.8900000000000D+00 -5.2910301301537D-01
191  1.9000000000000D+00 -5.2631825516753D-01
192  1.9100000000000D+00 -5.2356264582426D-01
193  1.9200000000000D+00 -5.2083575010438D-01
194  1.9300000000000D+00 -5.1813710599039D-01
195  1.9400000000000D+00 -5.1546628665634D-01
196  1.9500000000000D+00 -5.1282286042848D-01
197  1.9600000000000D+00 -5.1020640503892D-01
198  1.9700000000000D+00 -5.0761651941957D-01
199  1.9800000000000D+00 -5.0505278484474D-01
200  1.9900000000000D+00 -5.0251482491355D-01
201  2.0000000000000D+00 -5.0000223840755D-01
202  2.0100000000000D+00 -4.9751465577501D-01
203  2.0200000000000D+00 -4.9505170416440D-01
204  2.0300000000000D+00 -4.9261301337831D-01
205  2.0400000000000D+00 -4.9019823919347D-01
206  2.0500000000000D+00 -4.8780701432545D-01
207  2.0600000000000D+00 -4.8543901138684D-01
208  2.0700000000000D+00 -4.8309388645563D-01
209  2.0800000000000D+00 -4.8077130850453D-01
210  2.0900000000000D+00 -4.7847096340630D-01
211  2.1000000000000D+00 -4.7619251599758D-01
212  2.1100000000000D+00 -4.7393567216469D-01