 vasp.5.4.1 24Jun15 (build Nov 25 2015 22:48:06) complex                        
  
 executed on      IFC91_craympich date 2016.02.04  15:04:00
 running on   32 total cores
 distrk:  each k-point on   32 cores,    1 groups
 distr:  one band on NCORES_PER_BAND=   4 cores,    8 groups


--------------------------------------------------------------------------------------------------------


 INCAR:
 POTCAR:   PAW_PBE Ca_pv 06Sep2000                
 POTCAR:   PAW_PBE Al 04Jan2001                   
 POTCAR:   PAW_PBE Si 05Jan2001                   
 POTCAR:   PAW_PBE H 15Jun2001                    
 POTCAR:   PAW_PBE O 08Apr2002                    
 POTCAR:   PAW_PBE Ca_pv 06Sep2000                
   VRHFIN =Ca: p6s2d0.01                                                        
   LEXCH  = PE                                                                  
   EATOM  =   612.5326 eV,   45.0199 Ry                                         
                                                                                
   TITEL  = PAW_PBE Ca_pv 06Sep2000                                             
   LULTRA =        F    use ultrasoft PP ?                                      
   IUNSCR =        1    unscreen: 0-lin 1-nonlin 2-no                           
   RPACOR =    2.300    partial core radius                                     
   POMASS =   40.078; ZVAL   =    8.000    mass and valenz                      
   RCORE  =    3.000    outmost cutoff radius                                   
   RWIGS  =    3.300; RWIGS  =    1.746    wigner-seitz radius (au A)           
   ENMAX  =  119.554; ENMIN  =   89.665 eV                                      
   RCLOC  =    1.709    cutoff for local pot                                    
   LCOR   =        T    correct aug charges                                     
   LPAW   =        T    paw PP                                                  
   EAUG   =  325.799                                                            
   DEXC   =    -.003                                                            
   RMAX   =    4.217    core radius for proj-oper                               
   RAUG   =    1.300    factor for augmentation sphere                          
   RDEP   =    3.090    radius for radial grids                                 
   QCUT   =   -2.964; QGAM   =    5.929    optimization parameters              
                                                                                
   Description                                                                  
     l     E      TYP  RCUT    TYP  RCUT                                        
     1   .000     23  3.000                                                     
     1   .100     23  3.000                                                     
     0   .000     23  3.000                                                     
     0   .000     23  3.000                                                     
     2   .000     23  3.000                                                     
     2   .000     23  3.000                                                     
  local pseudopotential read in
  partial core-charges read in
  atomic valenz-charges read in
  non local Contribution for L=           1  read in
    real space projection operators read in
  non local Contribution for L=           1  read in
    real space projection operators read in
  non local Contribution for L=           0  read in
    real space projection operators read in
  non local Contribution for L=           0  read in
    real space projection operators read in
  non local Contribution for L=           2  read in
    real space projection operators read in
  non local Contribution for L=           2  read in
    real space projection operators read in
    PAW grid and wavefunctions read in
 
   number of l-projection  operators is LMAX  =           6
   number of lm-projection operators is LMMAX =          18
 
 POTCAR:   PAW_PBE Al 04Jan2001                   
   VRHFIN =Al: s2p1                                                             
   LEXCH  = PE                                                                  
   EATOM  =    53.5387 eV,    3.9350 Ry                                         
                                                                                
   TITEL  = PAW_PBE Al 04Jan2001                                                
   LULTRA =        F    use ultrasoft PP ?                                      
   IUNSCR =        1    unscreen: 0-lin 1-nonlin 2-no                           
   RPACOR =    1.500    partial core radius                                     
   POMASS =   26.982; ZVAL   =    3.000    mass and valenz                      
   RCORE  =    1.900    outmost cutoff radius                                   
   RWIGS  =    2.650; RWIGS  =    1.402    wigner-seitz radius (au A)           
   ENMAX  =  240.300; ENMIN  =  180.225 eV                                      
   ICORE  =        2    local potential                                         
   LCOR   =        T    correct aug charges                                     
   LPAW   =        T    paw PP                                                  
   EAUG   =  291.052                                                            
   DEXC   =    -.041                                                            
   RMAX   =    2.974    core radius for proj-oper                               
   RAUG   =    1.300    factor for augmentation sphere                          
   RDEP   =    1.966    radius for radial grids                                 
   QCUT   =   -4.203; QGAM   =    8.405    optimization parameters              
                                                                                
   Description                                                                  
     l     E      TYP  RCUT    TYP  RCUT                                        
     0   .000     23  1.900                                                     
     0   .000     23  1.900                                                     
     1   .000     23  1.900                                                     
     1  1.000     23  1.900                                                     
     2   .000      7  1.900                                                     
  local pseudopotential read in
  partial core-charges read in
  atomic valenz-charges read in
  non local Contribution for L=           0  read in
    real space projection operators read in
  non local Contribution for L=           0  read in
    real space projection operators read in
  non local Contribution for L=           1  read in
    real space projection operators read in
  non local Contribution for L=           1  read in
    real space projection operators read in
    PAW grid and wavefunctions read in
 
   number of l-projection  operators is LMAX  =           4
   number of lm-projection operators is LMMAX =           8
 
 POTCAR:   PAW_PBE Si 05Jan2001                   
   VRHFIN =Si: s2p2                                                             
   LEXCH  = PE                                                                  
   EATOM  =   103.0669 eV,    7.5752 Ry                                         
                                                                                
   TITEL  = PAW_PBE Si 05Jan2001                                                
   LULTRA =        F    use ultrasoft PP ?                                      
   IUNSCR =        1    unscreen: 0-lin 1-nonlin 2-no                           
   RPACOR =    1.500    partial core radius                                     
   POMASS =   28.085; ZVAL   =    4.000    mass and valenz                      
   RCORE  =    1.900    outmost cutoff radius                                   
   RWIGS  =    2.480; RWIGS  =    1.312    wigner-seitz radius (au A)           
   ENMAX  =  245.345; ENMIN  =  184.009 eV                                      
   ICORE  =        2    local potential                                         
   LCOR   =        T    correct aug charges                                     
   LPAW   =        T    paw PP                                                  
   EAUG   =  322.069                                                            
   DEXC   =    -.007                                                            
   RMAX   =    2.944    core radius for proj-oper                               
   RAUG   =    1.300    factor for augmentation sphere                          
   RDEP   =    1.993    radius for radial grids                                 
   QCUT   =   -4.246; QGAM   =    8.493    optimization parameters              
                                                                                
   Description                                                                  
     l     E      TYP  RCUT    TYP  RCUT                                        
     0   .000     23  1.900                                                     
     0   .000     23  1.900                                                     
     1   .000     23  1.900                                                     
     1   .000     23  1.900                                                     
     2   .000      7  1.900                                                     
  local pseudopotential read in
  partial core-charges read in
  atomic valenz-charges read in
  non local Contribution for L=           0  read in
    real space projection operators read in
  non local Contribution for L=           0  read in
    real space projection operators read in
  non local Contribution for L=           1  read in
    real space projection operators read in
  non local Contribution for L=           1  read in
    real space projection operators read in
    PAW grid and wavefunctions read in
 
   number of l-projection  operators is LMAX  =           4
   number of lm-projection operators is LMMAX =           8
 
 POTCAR:   PAW_PBE H 15Jun2001                    
   VRHFIN =H: ultrasoft test                                                    
   LEXCH  = PE                                                                  
   EATOM  =    12.4884 eV,     .9179 Ry                                         
                                                                                
   TITEL  = PAW_PBE H 15Jun2001                                                 
   LULTRA =        F    use ultrasoft PP ?                                      
   IUNSCR =        0    unscreen: 0-lin 1-nonlin 2-no                           
   RPACOR =     .000    partial core radius                                     
   POMASS =    1.000; ZVAL   =    1.000    mass and valenz                      
   RCORE  =    1.100    outmost cutoff radius                                   
   RWIGS  =     .700; RWIGS  =     .370    wigner-seitz radius (au A)           
   ENMAX  =  250.000; ENMIN  =  200.000 eV                                      
   RCLOC  =     .701    cutoff for local pot                                    
   LCOR   =        T    correct aug charges                                     
   LPAW   =        T    paw PP                                                  
   EAUG   =  400.000                                                            
   RMAX   =    2.174    core radius for proj-oper                               
   RAUG   =    1.200    factor for augmentation sphere                          
   RDEP   =    1.112    radius for radial grids                                 
   QCUT   =   -5.749; QGAM   =   11.498    optimization parameters              
                                                                                
   Description                                                                  
     l     E      TYP  RCUT    TYP  RCUT                                        
     0   .000     23  1.100                                                     
     0   .500     23  1.100                                                     
     1  -.300     23  1.100                                                     
  local pseudopotential read in
  atomic valenz-charges read in
  non local Contribution for L=           0  read in
    real space projection operators read in
  non local Contribution for L=           0  read in
    real space projection operators read in
  non local Contribution for L=           1  read in
    real space projection operators read in
    PAW grid and wavefunctions read in
 
   number of l-projection  operators is LMAX  =           3
   number of lm-projection operators is LMMAX =           5
 
 POTCAR:   PAW_PBE O 08Apr2002                    
   VRHFIN =O: s2p4                                                              
   LEXCH  = PE                                                                  
   EATOM  =   432.3788 eV,   31.7789 Ry                                         
                                                                                
   TITEL  = PAW_PBE O 08Apr2002                                                 
   LULTRA =        F    use ultrasoft PP ?                                      
   IUNSCR =        0    unscreen: 0-lin 1-nonlin 2-no                           
   RPACOR =     .000    partial core radius                                     
   POMASS =   16.000; ZVAL   =    6.000    mass and valenz                      
   RCORE  =    1.520    outmost cutoff radius                                   
   RWIGS  =    1.550; RWIGS  =     .820    wigner-seitz radius (au A)           
   ENMAX  =  400.000; ENMIN  =  300.000 eV                                      
   ICORE  =        2    local potential                                         
   LCOR   =        T    correct aug charges                                     
   LPAW   =        T    paw PP                                                  
   EAUG   =  605.392                                                            
   DEXC   =     .000                                                            
   RMAX   =    2.264    core radius for proj-oper                               
   RAUG   =    1.300    factor for augmentation sphere                          
   RDEP   =    1.550    radius for radial grids                                 
   QCUT   =   -5.520; QGAM   =   11.041    optimization parameters              
                                                                                
   Description                                                                  
     l     E      TYP  RCUT    TYP  RCUT                                        
     0   .000     23  1.200                                                     
     0  -.700     23  1.200                                                     
     1   .000     23  1.520                                                     
     1   .600     23  1.520                                                     
     2   .000      7  1.500                                                     
  local pseudopotential read in
  atomic valenz-charges read in
  non local Contribution for L=           0  read in
    real space projection operators read in
  non local Contribution for L=           0  read in
    real space projection operators read in
  non local Contribution for L=           1  read in
    real space projection operators read in
  non local Contribution for L=           1  read in
    real space projection operators read in
    PAW grid and wavefunctions read in
 
   number of l-projection  operators is LMAX  =           4
   number of lm-projection operators is LMMAX =           8
 
 Optimization of the real space projectors (new method)

 maximal supplied QI-value         = 12.47
 optimisation between [QCUT,QGAM] = [ 12.47, 25.07] = [ 43.56,175.99] Ry 
 Optimized for a Real-space Cutoff    1.70 Angstroem

   l    n(q)    QCUT    max X(q) W(low)/X(q) W(high)/X(q)  e(spline) 
   1     12    12.472    10.124    0.50E-05    0.38E-05    0.22E-06
   1     12    12.472    15.688    0.29E-04    0.26E-04    0.32E-06
   0     13    12.472    30.891    0.14E-04    0.30E-05    0.75E-07
   0     13    12.472    82.306    0.19E-04    0.26E-04    0.98E-06
   2     12    12.472     5.654    0.33E-04    0.30E-05    0.21E-06
   2     12    12.472    12.029    0.13E-03    0.41E-04    0.13E-05
 WARNING: PSMAXN for non-local potential too small
          PSMAXN should be >   12.5490833729506       NTYP=           1
 Optimization of the real space projectors (new method)

 maximal supplied QI-value         = 19.84
 optimisation between [QCUT,QGAM] = [ 12.50, 25.00] = [ 43.76,175.03] Ry 
 Optimized for a Real-space Cutoff    1.16 Angstroem

   l    n(q)    QCUT    max X(q) W(low)/X(q) W(high)/X(q)  e(spline) 
   0      9    12.501    13.410    0.14E-04    0.73E-05    0.56E-08
   0      9    12.501   140.052    0.64E-04    0.70E-04    0.60E-07
   1      8    12.501     9.624    0.28E-04    0.23E-04    0.19E-07
   1      8    12.501    53.353    0.16E-03    0.18E-03    0.68E-07
 Optimization of the real space projectors (new method)

 maximal supplied QI-value         = 19.84
 optimisation between [QCUT,QGAM] = [ 12.50, 25.00] = [ 43.76,175.03] Ry 
 Optimized for a Real-space Cutoff    1.16 Angstroem

   l    n(q)    QCUT    max X(q) W(low)/X(q) W(high)/X(q)  e(spline) 
   0      9    12.501     8.708    0.14E-04    0.64E-05    0.48E-08
   0      9    12.501   106.241    0.99E-04    0.81E-04    0.70E-07
   1      8    12.501     5.901    0.24E-04    0.20E-04    0.18E-07
   1      8    12.501    73.241    0.20E-03    0.24E-03    0.75E-07
 Optimization of the real space projectors (new method)

 maximal supplied QI-value         = 34.20
 optimisation between [QCUT,QGAM] = [ 12.31, 24.97] = [ 42.46,174.58] Ry 
 Optimized for a Real-space Cutoff    1.13 Angstroem

   l    n(q)    QCUT    max X(q) W(low)/X(q) W(high)/X(q)  e(spline) 
   0      8    12.313     4.436    0.23E-04    0.11E-04    0.40E-07
   0      8    12.313    16.131    0.92E-04    0.23E-03    0.26E-06
   1      8    12.313     4.654    0.24E-03    0.28E-03    0.15E-06
 Optimization of the real space projectors (new method)

 maximal supplied QI-value         = 24.76
 optimisation between [QCUT,QGAM] = [ 12.38, 25.00] = [ 42.90,175.06] Ry 
 Optimized for a Real-space Cutoff    1.16 Angstroem

   l    n(q)    QCUT    max X(q) W(low)/X(q) W(high)/X(q)  e(spline) 
   0      9    12.378     4.192    0.16E-04    0.96E-05    0.57E-07
   0      9    12.378     8.473    0.17E-03    0.81E-05    0.33E-06
   1      8    12.378     2.474    0.24E-04    0.82E-05    0.33E-07
   1      8    12.378     3.912    0.18E-03    0.14E-03    0.26E-06
 PAW_PBE Ca_pv 06Sep2000                :
 energy of atom  1       EATOM= -612.5326
 kinetic energy error for atom=    0.0001 (will be added to EATOM!!)
 PAW_PBE Al 04Jan2001                   :
 energy of atom  2       EATOM=  -53.5387
 kinetic energy error for atom=    0.0002 (will be added to EATOM!!)
 PAW_PBE Si 05Jan2001                   :
 energy of atom  3       EATOM= -103.0669
 kinetic energy error for atom=    0.0003 (will be added to EATOM!!)
 PAW_PBE H 15Jun2001                    :
 energy of atom  4       EATOM=  -12.4884
 kinetic energy error for atom=    0.0004 (will be added to EATOM!!)
 PAW_PBE O 08Apr2002                    :
 energy of atom  5       EATOM= -432.3788
 kinetic energy error for atom=    0.0168 (will be added to EATOM!!)
 
 
 POSCAR: Ca2 Al8 Si4 H4 O24                      
  positions in direct lattice
  velocities in cartesian coordinates
 exchange correlation table for  LEXCH =        8
   RHO(1)=    0.500       N(1)  =     2000
   RHO(2)=  100.500       N(2)  =     4000
 


--------------------------------------------------------------------------------------------------------


 ion  position               nearest neighbor table
   1  0.906  0.095  0.749-  34 2.43  29 2.43  19 2.44  24 2.45  42 2.50  37 2.51  11 3.56  14 3.59
                            10 3.59  14 3.60  14 3.61  11 3.61   3 3.62  11 3.62   3 3.64   3 3.65
   2  0.095  0.906  0.249-  33 2.43  30 2.43  20 2.44  23 2.45  41 2.50  38 2.51  12 3.56  13 3.59
                             9 3.59  13 3.60  13 3.61  12 3.61   4 3.62  12 3.62   4 3.64   4 3.65
   3  0.533  0.393  0.641-  21 1.74  29 1.78  37 1.78  19 1.79  11 2.94  11 2.94  11 3.04   7 3.17
                             5 3.24   1 3.62   1 3.64   1 3.65
   4  0.393  0.533  0.141-  22 1.74  30 1.78  38 1.78  20 1.79  12 2.94  12 2.94  12 3.04   8 3.17
                             6 3.24   2 3.62   2 3.64   2 3.65
   5  0.832  0.667  0.499-  21 1.89  35 1.89  39 1.92  27 1.92  25 1.96  31 1.96   7 2.97   7 2.97
                             7 2.98  13 3.23  11 3.23   9 3.24   3 3.24
   6  0.667  0.832  0.999-  22 1.89  36 1.89  40 1.92  28 1.92  26 1.96  32 1.96   8 2.97   8 2.97
                             8 2.98  14 3.23  12 3.23  10 3.24   4 3.24
   7  0.165  0.334  0.499-  35 1.87  21 1.87  27 1.91  39 1.91  31 2.02  25 2.02   5 2.97   5 2.97
                             5 2.98   9 3.17   3 3.17
   8  0.334  0.165  0.999-  36 1.87  22 1.87  28 1.91  40 1.91  32 2.02  26 2.02   6 2.97   6 2.97
                             6 2.98  10 3.17   4 3.17
   9  0.807  0.291  0.358-  35 1.74  41 1.78  23 1.78  33 1.79  13 2.94  13 2.95  13 3.04   7 3.17
                             5 3.24   2 3.59   2 3.66   2 3.66
  10  0.291  0.807  0.858-  36 1.74  42 1.78  24 1.78  34 1.79  14 2.94  14 2.95  14 3.04   8 3.17
                             6 3.24   1 3.59   1 3.66   1 3.66
  11  0.194  0.713  0.644-  25 1.64  19 1.65  29 1.65  37 1.65   3 2.94   3 2.94   3 3.04   5 3.23
                             1 3.56   1 3.61   1 3.62
  12  0.713  0.194  0.144-  26 1.64  20 1.65  30 1.65  38 1.65   4 2.94   4 2.94   4 3.04   6 3.23
                             2 3.56   2 3.61   2 3.62
  13  0.464  0.608  0.354-  31 1.64  33 1.65  41 1.65  23 1.66   9 2.94   9 2.95   9 3.04   5 3.23
                             2 3.59   2 3.60   2 3.61
  14  0.608  0.464  0.854-  32 1.64  34 1.65  42 1.65  24 1.66  10 2.94  10 2.95  10 3.04   6 3.23
                             1 3.59   1 3.60   1 3.61
  15  0.706  0.023  0.560-  39 0.97
  16  0.023  0.706  0.060-  40 0.97
  17  0.292  0.980  0.439-  27 0.97
  18  0.980  0.292  0.939-  28 0.97
  19  0.895  0.682  0.679-  11 1.65   3 1.79   1 2.44
  20  0.682  0.895  0.179-  12 1.65   4 1.79   2 2.44
  21  0.515  0.410  0.552-   3 1.74   7 1.87   5 1.89
  22  0.410  0.515  0.052-   4 1.74   8 1.87   6 1.89
  23  0.132  0.335  0.319-  13 1.66   9 1.78   2 2.45
  24  0.335  0.132  0.819-  14 1.66  10 1.78   1 2.45
  25  0.137  0.648  0.560-  11 1.64   5 1.96   7 2.02
  26  0.648  0.137  0.060-  12 1.64   6 1.96   8 2.02
  27  0.110  0.983  0.447-  17 0.97   7 1.91   5 1.92
  28  0.983  0.110  0.947-  18 0.97   8 1.91   6 1.92
  29  0.262  0.462  0.678-  11 1.65   3 1.78   1 2.43
  30  0.462  0.262  0.178-  12 1.65   4 1.78   2 2.43
  31  0.484  0.603  0.439-  13 1.64   5 1.96   7 2.02
  32  0.603  0.484  0.939-  14 1.64   6 1.96   8 2.02
  33  0.723  0.555  0.321-  13 1.65   9 1.79   2 2.43
  34  0.555  0.723  0.821-  14 1.65  10 1.79   1 2.43
  35  0.873  0.371  0.447-   9 1.74   7 1.87   5 1.89
  36  0.371  0.873  0.947-  10 1.74   8 1.87   6 1.89
  37  0.487  0.049  0.668-  11 1.65   3 1.78   1 2.51
  38  0.049  0.487  0.168-  12 1.65   4 1.78   2 2.51
  39  0.889  0.021  0.551-  15 0.97   7 1.91   5 1.92
  40  0.021  0.889  0.051-  16 0.97   8 1.91   6 1.92
  41  0.498  0.926  0.330-  13 1.65   9 1.78   2 2.50
  42  0.926  0.498  0.830-  14 1.65  10 1.78   1 2.50
 
  Warning from LATTYP: Got some problem with cell dimensions!
  Tried to take original basis but could not verify dimensions!
  LATTYP: Found a base centered monoclinic cell.
 ALAT       =     5.1498155684
 B/A-ratio  =     1.7323489440
 C/A-ratio  =     4.0883772622
 COS(beta)  =    -0.1995609299
  
  Lattice vectors:
  
 A1 = (  -2.5601942466,   4.4606387809,   0.2748736374)
 A2 = (  -2.5601942466,  -4.4606387809,   0.2748736374)
 A3 = (  10.4170732400,   0.0000000000,  18.2967722832)


Analysis of symmetry for initial positions (statically):
=====================================================================
 Subroutine PRICEL returns:
 Original cell was already a primitive cell.
 

 Routine SETGRP: Setting up the symmetry group for a 
 base centered monoclinic supercell.


 Subroutine GETGRP returns: Found  2 space group operations
 (whereof  1 operations were pure point group operations)
 out of a pool of  4 trial point group operations.


The static configuration has the point symmetry C_1 .
 The point group associated with its full space group is C_1h.


Analysis of symmetry for dynamics (positions and initial velocities):
=====================================================================
 Subroutine PRICEL returns:
 Original cell was already a primitive cell.
 

 Routine SETGRP: Setting up the symmetry group for a 
 base centered monoclinic supercell.


 Subroutine GETGRP returns: Found  2 space group operations
 (whereof  1 operations were pure point group operations)
 out of a pool of  4 trial point group operations.


The dynamic configuration has the point symmetry C_1 .
 The point group associated with its full space group is C_1h.


 Subroutine INISYM returns: Found  2 space group operations
 (whereof  1 operations are pure point group operations),
 and found     1 'primitive' translations

 
 
 KPOINTS: CaAl4Si2O12H2                           

Automatic generation of k-mesh.
Space group operators:
 irot       det(A)        alpha          n_x          n_y          n_z        tau_x        tau_y        tau_z
    1     1.000000     0.000000     1.000000     0.000000     0.000000     0.000000     0.000000     0.000000
    2    -1.000000   179.999999     0.000000    -1.000000     0.000000    -1.000000    -1.000000    -0.500000
 
 Subroutine IBZKPT returns following result:
 ===========================================
 
 Found     36 irreducible k-points:
 
 Following reciprocal coordinates:
            Coordinates               Weight
  0.062500  0.062500  0.250000      2.000000
  0.187500  0.062500  0.250000      4.000000
  0.312500  0.062500  0.250000      4.000000
  0.437500  0.062500  0.250000      4.000000
 -0.437500  0.062500  0.250000      4.000000
 -0.312500  0.062500  0.250000      4.000000
 -0.187500  0.062500  0.250000      4.000000
 -0.062500  0.062500  0.250000      4.000000
  0.187500  0.187500  0.250000      2.000000
  0.312500  0.187500  0.250000      4.000000
  0.437500  0.187500  0.250000      4.000000
 -0.437500  0.187500  0.250000      4.000000
 -0.312500  0.187500  0.250000      4.000000
 -0.187500  0.187500  0.250000      4.000000
 -0.062500  0.187500  0.250000      4.000000
  0.312500  0.312500  0.250000      2.000000
  0.437500  0.312500  0.250000      4.000000
 -0.437500  0.312500  0.250000      4.000000
 -0.312500  0.312500  0.250000      4.000000
 -0.187500  0.312500  0.250000      4.000000
 -0.062500  0.312500  0.250000      4.000000
  0.437500  0.437500  0.250000      2.000000
 -0.437500  0.437500  0.250000      4.000000
 -0.312500  0.437500  0.250000      4.000000
 -0.187500  0.437500  0.250000      4.000000
 -0.062500  0.437500  0.250000      4.000000
 -0.437500 -0.437500  0.250000      2.000000
 -0.312500 -0.437500  0.250000      4.000000
 -0.187500 -0.437500  0.250000      4.000000
 -0.062500 -0.437500  0.250000      4.000000
 -0.312500 -0.312500  0.250000      2.000000
 -0.187500 -0.312500  0.250000      4.000000
 -0.062500 -0.312500  0.250000      4.000000
 -0.187500 -0.187500  0.250000      2.000000
 -0.062500 -0.187500  0.250000      4.000000
 -0.062500 -0.062500  0.250000      2.000000
 
 Following cartesian coordinates:
            Coordinates               Weight
 -0.025771 -0.000000 -0.012655      2.000000
 -0.050159 -0.014011 -0.012433      4.000000
 -0.074548 -0.028023 -0.012212      4.000000
 -0.098936 -0.042034 -0.011990      4.000000
  0.071783  0.056046 -0.013542      4.000000
  0.047394  0.042034 -0.013320      4.000000
  0.023006  0.028023 -0.013098      4.000000
 -0.001382  0.014011 -0.012877      4.000000
 -0.074548  0.000000 -0.012212      2.000000
 -0.098936 -0.014011 -0.011990      4.000000
 -0.123325 -0.028023 -0.011768      4.000000
  0.047394  0.070057 -0.013320      4.000000
  0.023006  0.056046 -0.013098      4.000000
 -0.001382  0.042034 -0.012877      4.000000
 -0.025771  0.028023 -0.012655      4.000000
 -0.123325  0.000000 -0.011768      2.000000
 -0.147713 -0.014011 -0.011546      4.000000
  0.023006  0.084069 -0.013098      4.000000
 -0.001382  0.070057 -0.012877      4.000000
 -0.025771  0.056046 -0.012655      4.000000
 -0.050159  0.042034 -0.012433      4.000000
 -0.172101  0.000000 -0.011325      2.000000
 -0.001382  0.098080 -0.012877      4.000000
 -0.025771  0.084069 -0.012655      4.000000
 -0.050159  0.070057 -0.012433      4.000000
 -0.074548  0.056046 -0.012212      4.000000
  0.169336  0.000000 -0.014428      2.000000
  0.144948 -0.014011 -0.014207      4.000000
  0.120560 -0.028023 -0.013985      4.000000
  0.096171 -0.042034 -0.013763      4.000000
  0.120560  0.000000 -0.013985      2.000000
  0.096171 -0.014011 -0.013763      4.000000
  0.071783 -0.028023 -0.013542      4.000000
  0.071783 -0.000000 -0.013542      2.000000
  0.047394 -0.014011 -0.013320      4.000000
  0.023006  0.000000 -0.013098      2.000000
 
 TETIRR: Found    189 inequivalent tetrahedra from      768


--------------------------------------------------------------------------------------------------------




 Dimension of arrays:
   k-points           NKPTS =     36   k-points in BZ     NKDIM =     36   number of bands    NBANDS=    128
   number of dos      NEDOS =    301   number of ions     NIONS =     42
   non local maximal  LDIM  =      6   non local SUM 2l+1 LMDIM =     18
   total plane-waves  NPLWV = 282240
   max r-space proj   IRMAX =  13263   max aug-charges    IRDMAX=  44777
   dimension x,y,z NGX =    42 NGY =   42 NGZ =  160
   dimension x,y,z NGXF=    84 NGYF=   84 NGZF=  320
   support grid    NGXF=    84 NGYF=   84 NGZF=  320
   ions per type =               2   8   4   4  24
 NGX,Y,Z   is equivalent  to a cutoff of  13.56, 13.56, 13.71 a.u.
 NGXF,Y,Z  is equivalent  to a cutoff of  27.11, 27.11, 27.43 a.u.


 I would recommend the setting:
   dimension x,y,z NGX =    41 NGY =   41 NGZ =  155
 SYSTEM =  unknown system                          
 POSCAR =  Ca2 Al8 Si4 H4 O24                      

 Startparameter for this run:
   NWRITE =      2    write-flag & timer
   PREC   = accura    normal or accurate (medium, high low for compatibility)
   ISTART =      0    job   : 0-new  1-cont  2-samecut
   ICHARG =      2    charge: 1-file 2-atom 10-const
   ISPIN  =      1    spin polarized calculation?
   LNONCOLLINEAR =      F non collinear calculations
   LSORBIT =      F    spin-orbit coupling
   INIWAV =      1    electr: 0-lowe 1-rand  2-diag
   LASPH  =      F    aspherical Exc in radial PAW
   METAGGA=      F    non-selfconsistent MetaGGA calc.

 Electronic Relaxation 1
   ENCUT  =  600.0 eV  44.10 Ry    6.64 a.u.  10.29 10.29 38.74*2*pi/ulx,y,z
   ENINI  =  600.0     initial cutoff
   ENAUG  =  605.4 eV  augmentation charge cutoff
   NELM   =     60;   NELMIN=  2; NELMDL= -5     # of ELM steps 
   EDIFF  = 0.1E-05   stopping-criterion for ELM
   LREAL  =      T    real-space projection
   NLSPLINE    = F    spline interpolate recip. space projectors
   LCOMPAT=      F    compatible to vasp.4.4
   GGA_COMPAT  = T    GGA compatible to vasp.4.4-vasp.4.6
   LMAXPAW     = -100 max onsite density
   LMAXMIX     =    2 max onsite mixed and CHGCAR
   VOSKOWN=      0    Vosko Wilk Nusair interpolation
   ROPT   =   -0.00025  -0.00025  -0.00025  -0.00025
   ROPT   =   -0.00025
 Ionic relaxation
   EDIFFG = 0.1E-04   stopping-criterion for IOM
   NSW    =      0    number of steps for IOM
   NBLOCK =      1;   KBLOCK =      1    inner block; outer block 
   IBRION =     -1    ionic relax: 0-MD 1-quasi-New 2-CG
   NFREE  =      0    steps in history (QN), initial steepest desc. (CG)
   ISIF   =      2    stress and relaxation
   IWAVPR =     10    prediction:  0-non 1-charg 2-wave 3-comb
   ISYM   =      2    0-nonsym 1-usesym 2-fastsym
   LCORR  =      T    Harris-Foulkes like correction to forces

   POTIM  = 0.5000    time-step for ionic-motion
   TEIN   =    0.0    initial temperature
   TEBEG  =    0.0;   TEEND  =   0.0 temperature during run
   SMASS  =  -3.00    Nose mass-parameter (am)
   estimated Nose-frequenzy (Omega)   =  0.10E-29 period in steps =****** mass=  -0.606E-27a.u.
   SCALEE = 1.0000    scale energy and forces
   NPACO  =    256;   APACO  = 16.0  distance and # of slots for P.C.
   PSTRESS=    0.0 pullay stress

  Mass of Ions in am
   POMASS =  40.08 26.98 28.09  1.00 16.00
  Ionic Valenz
   ZVAL   =   8.00  3.00  4.00  1.00  6.00
  Atomic Wigner-Seitz radii
   RWIGS  =  -1.00 -1.00 -1.00 -1.00 -1.00
  virtual crystal weights 
   VCA    =   1.00  1.00  1.00  1.00  1.00
   NELECT =     204.0000    total number of electrons
   NUPDOWN=      -1.0000    fix difference up-down

 DOS related values:
   EMIN   =  10.00;   EMAX   =-10.00  energy-range for DOS
   EFERMI =   0.00
   ISMEAR =    -5;   SIGMA  =   0.00  broadening in eV -4-tet -1-fermi 0-gaus

 Electronic relaxation 2 (details)
   IALGO  =     38    algorithm
   LDIAG  =      T    sub-space diagonalisation (order eigenvalues)
   LSUBROT=      F    optimize rotation matrix (better conditioning)
   TURBO    =      0    0=normal 1=particle mesh
   IRESTART =      0    0=no restart 2=restart with 2 vectors
   NREBOOT  =      0    no. of reboots
   NMIN     =      0    reboot dimension
   EREF     =   0.00    reference energy to select bands
   IMIX   =      4    mixing-type and parameters
     AMIX     =   0.40;   BMIX     =  1.00
     AMIX_MAG =   1.60;   BMIX_MAG =  1.00
     AMIN     =   0.10
     WC   =   100.;   INIMIX=   1;  MIXPRE=   1;  MAXMIX= -45

 Intra band minimization:
   WEIMIN = 0.0000     energy-eigenvalue tresh-hold
   EBREAK =  0.20E-08  absolut break condition
   DEPER  =   0.30     relativ break condition  

   TIME   =   0.40     timestep for ELM

  volume/ion in A,a.u.               =      10.56        71.25
  Fermi-wavevector in a.u.,A,eV,Ry     =   1.263779  2.388195 21.730358  1.597136
  Thomas-Fermi vector in A             =   2.397118
 
 Write flags
   LWAVE  =      F    write WAVECAR
   LCHARG =      F    write CHGCAR
   LVTOT  =      F    write LOCPOT, total local potential
   LVHAR  =      F    write LOCPOT, Hartree potential only
   LELF   =      F    write electronic localiz. function (ELF)
   LORBIT =      0    0 simple, 1 ext, 2 COOP (PROOUT)


 Dipole corrections
   LMONO  =      F    monopole corrections only (constant potential shift)
   LDIPOL =      F    correct potential (dipole corrections)
   IDIPOL =      0    1-x, 2-y, 3-z, 4-all directions 
   EPSILON=  1.0000000 bulk dielectric constant

 Exchange correlation treatment:
   GGA     =    --    GGA type
   LEXCH   =     8    internal setting for exchange type
   VOSKOWN=      0    Vosko Wilk Nusair interpolation
   LHFCALC =     F    Hartree Fock is set to
   LHFONE  =     F    Hartree Fock one center treatment
   AEXX    =    0.0000 exact exchange contribution

 Linear response parameters
   LEPSILON=     F    determine dielectric tensor
   LRPA    =     F    only Hartree local field effects (RPA)
   LNABLA  =     F    use nabla operator in PAW spheres
   LVEL    =     F    velocity operator in full k-point grid
   LINTERFAST=   F  fast interpolation
   KINTER  =     0    interpolate to denser k-point grid
   CSHIFT  =0.1000    complex shift for real part using Kramers Kronig
   OMEGAMAX=  -1.0    maximum frequency
   DEG_THRESHOLD= 0.2000000E-02 threshold for treating states as degnerate
   RTIME   =    0.100 relaxation time in fs

 Orbital magnetization related:
   ORBITALMAG=     F  switch on orbital magnetization
   LCHIMAG   =     F  perturbation theory with respect to B field
   DQ        =  0.001000  dq finite difference perturbation B field



--------------------------------------------------------------------------------------------------------


 Static calculation
 charge density and potential will be updated during run
 non-spin polarized calculation
 Variant of blocked Davidson
 Davidson routine will perform the subspace rotation
 perform sub-space diagonalisation
    after iterative eigenvector-optimisation
 modified Broyden-mixing scheme, WC =      100.0
 initial mixing is a Kerker type mixing with AMIX =  0.4000 and BMIX =      1.0000
 Hartree-type preconditioning will be used
 using additional bands           26
 WARNING: no broadening specified (might cause bad convergence)
 real space projection scheme for non local part
 use partial core corrections
 calculate Harris-corrections to forces 
   (improved forces if not selfconsistent)
 use gradient corrections 
 use of overlap-Matrix (Vanderbilt PP)
 Fermi weights with tetrahedron method with Bloechl corrections


--------------------------------------------------------------------------------------------------------


  energy-cutoff  :      600.00
  volume of cell :      443.45
      direct lattice vectors                 reciprocal lattice vectors
    -2.560194247 -4.460638781  0.274873637    -0.195107285 -0.112091569  0.001773366
    -2.560194247  4.460638781  0.274873637    -0.195107285  0.112091569  0.001773366
    -0.176296253  0.000000000-19.396266833    -0.005529915 -0.000000000 -0.051506050

  length of vectors
     5.150480408  5.150480408 19.397068011     0.225021149  0.225021149  0.051802058


 
 k-points in units of 2pi/SCALE and weight: CaAl4Si2O12H2                           
  -0.02577089 -0.00000000 -0.01265484       0.016
  -0.05015930 -0.01401145 -0.01243317       0.031
  -0.07454771 -0.02802289 -0.01221150       0.031
  -0.09893612 -0.04203434 -0.01198983       0.031
   0.07178275  0.05604578 -0.01354152       0.031
   0.04739434  0.04203434 -0.01331985       0.031
   0.02300593  0.02802289 -0.01309818       0.031
  -0.00138248  0.01401145 -0.01287651       0.031
  -0.07454771 -0.00000000 -0.01221150       0.016
  -0.09893612 -0.01401145 -0.01198983       0.031
  -0.12332453 -0.02802289 -0.01176816       0.031
   0.04739434  0.07005723 -0.01331985       0.031
   0.02300593  0.05604578 -0.01309818       0.031
  -0.00138248  0.04203434 -0.01287651       0.031
  -0.02577089  0.02802289 -0.01265484       0.031
  -0.12332453 -0.00000000 -0.01176816       0.016
  -0.14771294 -0.01401145 -0.01154649       0.031
   0.02300593  0.08406868 -0.01309818       0.031
  -0.00138248  0.07005723 -0.01287651       0.031
  -0.02577089  0.05604578 -0.01265484       0.031
  -0.05015930  0.04203434 -0.01243317       0.031
  -0.17210135  0.00000000 -0.01132482       0.016
  -0.00138248  0.09808012 -0.01287651       0.031
  -0.02577089  0.08406868 -0.01265484       0.031
  -0.05015930  0.07005723 -0.01243317       0.031
  -0.07454771  0.05604578 -0.01221150       0.031
   0.16933640 -0.00000000 -0.01442821       0.016
   0.14494799 -0.01401145 -0.01420654       0.031
   0.12055957 -0.02802289 -0.01398487       0.031
   0.09617116 -0.04203434 -0.01376320       0.031
   0.12055957  0.00000000 -0.01398487       0.016
   0.09617116 -0.01401145 -0.01376320       0.031
   0.07178275 -0.02802289 -0.01354152       0.031
   0.07178275 -0.00000000 -0.01354152       0.016
   0.04739434 -0.01401145 -0.01331985       0.031
   0.02300593 -0.00000000 -0.01309818       0.016
 
 k-points in reciprocal lattice and weights: CaAl4Si2O12H2                           
   0.06250000  0.06250000  0.25000000       0.016
   0.18750000  0.06250000  0.25000000       0.031
   0.31250000  0.06250000  0.25000000       0.031
   0.43750000  0.06250000  0.25000000       0.031
  -0.43750000  0.06250000  0.25000000       0.031
  -0.31250000  0.06250000  0.25000000       0.031
  -0.18750000  0.06250000  0.25000000       0.031
  -0.06250000  0.06250000  0.25000000       0.031
   0.18750000  0.18750000  0.25000000       0.016
   0.31250000  0.18750000  0.25000000       0.031
   0.43750000  0.18750000  0.25000000       0.031
  -0.43750000  0.18750000  0.25000000       0.031
  -0.31250000  0.18750000  0.25000000       0.031
  -0.18750000  0.18750000  0.25000000       0.031
  -0.06250000  0.18750000  0.25000000       0.031
   0.31250000  0.31250000  0.25000000       0.016
   0.43750000  0.31250000  0.25000000       0.031
  -0.43750000  0.31250000  0.25000000       0.031
  -0.31250000  0.31250000  0.25000000       0.031
  -0.18750000  0.31250000  0.25000000       0.031
  -0.06250000  0.31250000  0.25000000       0.031
   0.43750000  0.43750000  0.25000000       0.016
  -0.43750000  0.43750000  0.25000000       0.031
  -0.31250000  0.43750000  0.25000000       0.031
  -0.18750000  0.43750000  0.25000000       0.031
  -0.06250000  0.43750000  0.25000000       0.031
  -0.43750000 -0.43750000  0.25000000       0.016
  -0.31250000 -0.43750000  0.25000000       0.031
  -0.18750000 -0.43750000  0.25000000       0.031
  -0.06250000 -0.43750000  0.25000000       0.031
  -0.31250000 -0.31250000  0.25000000       0.016
  -0.18750000 -0.31250000  0.25000000       0.031
  -0.06250000 -0.31250000  0.25000000       0.031
  -0.18750000 -0.18750000  0.25000000       0.016
  -0.06250000 -0.18750000  0.25000000       0.031
  -0.06250000 -0.06250000  0.25000000       0.016
 
 position of ions in fractional coordinates (direct lattice) 
   0.90565794  0.09454665  0.74915538
   0.09454665  0.90565794  0.24915538
   0.53322514  0.39310001  0.64067324
   0.39310001  0.53322514  0.14067324
   0.83168923  0.66659457  0.49906399
   0.66659457  0.83168923  0.99906399
   0.16547733  0.33421807  0.49917966
   0.33421807  0.16547733  0.99917966
   0.80677431  0.29055122  0.35753526
   0.29055122  0.80677431  0.85753526
   0.19413556  0.71258646  0.64400795
   0.71258646  0.19413556  0.14400795
   0.46364195  0.60775551  0.35419717
   0.60775551  0.46364195  0.85419717
   0.70630189  0.02348583  0.55983981
   0.02348583  0.70630189  0.05983981
   0.29235467  0.97956038  0.43867221
   0.97956038  0.29235467  0.93867221
   0.89456660  0.68197076  0.67869209
   0.68197076  0.89456660  0.17869209
   0.51474825  0.41017862  0.55150884
   0.41017862  0.51474825  0.05150884
   0.13248232  0.33476279  0.31922290
   0.33476279  0.13248232  0.81922290
   0.13693859  0.64751297  0.55958651
   0.64751297  0.13693859  0.05958651
   0.11000258  0.98337874  0.44746427
   0.98337874  0.11000258  0.94746427
   0.26233066  0.46214216  0.67777081
   0.46214216  0.26233066  0.17777081
   0.48401660  0.60271082  0.43859782
   0.60271082  0.48401660  0.93859782
   0.72308821  0.55463279  0.32073029
   0.55463279  0.72308821  0.82073029
   0.87318689  0.37123933  0.44674653
   0.37123933  0.87318689  0.94674653
   0.48746829  0.04854451  0.66800858
   0.04854451  0.48746829  0.16800858
   0.88901982  0.02089507  0.55077874
   0.02089507  0.88901982  0.05077874
   0.49779462  0.92613128  0.33016795
   0.92613128  0.49779462  0.83016795
 
 position of ions in cartesian coordinates  (Angst):
  -2.69279133 -3.61807445-14.25588786
  -2.60464321  3.61807445 -4.55775444
  -2.48452061 -0.62504761-12.17204670
  -2.39637248  0.62504761 -2.47391328
  -3.92388066 -0.73642763 -9.26813960
  -4.01202879  0.73642763-18.96627302
  -1.36732078  0.75269147 -9.54486873
  -1.45546891 -0.75269147-19.24300215
  -2.87239865 -2.30268475 -6.63322342
  -2.96054677  2.30268475-16.33135684
  -2.43492069  2.31262222-12.24211600
  -2.34677257 -2.31262222 -2.54398258
  -2.80542924  0.64283851 -6.57560394
  -2.89357737 -0.64283851-16.27373736
  -1.96709599 -3.04579583-10.65820301
  -1.87894786  3.04579583 -0.96006959
  -3.33368586  3.06537642 -8.15898723
  -3.42183399 -3.06537642-17.85712065
  -4.15589275 -0.94831328-12.73074437
  -4.06774462  0.94831328 -3.03261096
  -2.46522140 -0.46644732-10.44297466
  -2.37707327  0.46644732 -0.74484125
  -1.25251604  0.90230012 -6.06329918
  -1.34066417 -0.90230012-15.76143260
  -2.10700138  2.27748790-10.63826428
  -2.01885326 -2.27748790 -0.94013086
  -2.87815485  3.89581559 -8.37859467
  -2.96630297 -3.89581559-18.07672809
  -1.97427962  0.89128694-12.94708492
  -1.88613149 -0.89128694 -3.24895150
  -2.85955643  0.52945205 -8.20844769
  -2.94770455 -0.52945205-17.90658110
  -3.32775748 -0.75141877 -5.86975838
  -3.41590561  0.75141877-15.56789180
  -3.26473258 -2.23900675 -8.32315499
  -3.35288070  2.23900675-18.02128841
  -1.49006431 -1.95788045-12.80953691
  -1.40191618  1.95788045 -3.11140349
  -2.42665910 -3.87239093-10.43293980
  -2.33851097  3.87239093 -0.73480638
  -3.70373429  1.91065511 -6.01262592
  -3.79188241 -1.91065511-15.71075934
 


--------------------------------------------------------------------------------------------------------


 k-point  1 :   0.0625 0.0625 0.2500  plane waves:   14827
 k-point  2 :   0.1875 0.0625 0.2500  plane waves:   14812
 k-point  3 :   0.3125 0.0625 0.2500  plane waves:   14798
 k-point  4 :   0.4375 0.0625 0.2500  plane waves:   14813
 k-point  5 :  -0.4375 0.0625 0.2500  plane waves:   14810
 k-point  6 :  -0.3125 0.0625 0.2500  plane waves:   14800
 k-point  7 :  -0.1875 0.0625 0.2500  plane waves:   14828
 k-point  8 :  -0.0625 0.0625 0.2500  plane waves:   14807
 k-point  9 :   0.1875 0.1875 0.2500  plane waves:   14795
 k-point 10 :   0.3125 0.1875 0.2500  plane waves:   14782
 k-point 11 :   0.4375 0.1875 0.2500  plane waves:   14798
 k-point 12 :  -0.4375 0.1875 0.2500  plane waves:   14812
 k-point 13 :  -0.3125 0.1875 0.2500  plane waves:   14784
 k-point 14 :  -0.1875 0.1875 0.2500  plane waves:   14811
 k-point 15 :  -0.0625 0.1875 0.2500  plane waves:   14818
 k-point 16 :   0.3125 0.3125 0.2500  plane waves:   14795
 k-point 17 :   0.4375 0.3125 0.2500  plane waves:   14775
 k-point 18 :  -0.4375 0.3125 0.2500  plane waves:   14780
 k-point 19 :  -0.3125 0.3125 0.2500  plane waves:   14794
 k-point 20 :  -0.1875 0.3125 0.2500  plane waves:   14801
 k-point 21 :  -0.0625 0.3125 0.2500  plane waves:   14802
 k-point 22 :   0.4375 0.4375 0.2500  plane waves:   14793
 k-point 23 :  -0.4375 0.4375 0.2500  plane waves:   14823
 k-point 24 :  -0.3125 0.4375 0.2500  plane waves:   14797
 k-point 25 :  -0.1875 0.4375 0.2500  plane waves:   14790
 k-point 26 :  -0.0625 0.4375 0.2500  plane waves:   14799
 k-point 27 :  -0.4375-0.4375 0.2500  plane waves:   14783
 k-point 28 :  -0.3125-0.4375 0.2500  plane waves:   14782
 k-point 29 :  -0.1875-0.4375 0.2500  plane waves:   14785
 k-point 30 :  -0.0625-0.4375 0.2500  plane waves:   14807
 k-point 31 :  -0.3125-0.3125 0.2500  plane waves:   14761
 k-point 32 :  -0.1875-0.3125 0.2500  plane waves:   14784
 k-point 33 :  -0.0625-0.3125 0.2500  plane waves:   14801
 k-point 34 :  -0.1875-0.1875 0.2500  plane waves:   14778
 k-point 35 :  -0.0625-0.1875 0.2500  plane waves:   14798
 k-point 36 :  -0.0625-0.0625 0.2500  plane waves:   14799

 maximum and minimum number of plane-waves per node :      3719     3677

 maximum number of plane-waves:     14828
 maximum index in each direction: 
   IXMAX=   10   IYMAX=   10   IZMAX=   38
   IXMIN=  -10   IYMIN=  -10   IZMIN=  -38

 NGX is ok and might be reduce to  42
 NGY is ok and might be reduce to  42
 NGZ is ok and might be reduce to 154

 real space projection operators:
  total allocation   :      13283.80 KBytes
  max/ min on nodes  :       3508.41       3135.36


 parallel 3D FFT for wavefunctions:
    minimum data exchange during FFTs selected (reduces bandwidth)
 parallel 3D FFT for charge:
    minimum data exchange during FFTs selected (reduces bandwidth)


 total amount of memory used by VASP on root node    93395. kBytes
========================================================================

   base      :      30000. kBytes
   nonlr-proj:      13758. kBytes
   fftplans  :       4851. kBytes
   grid      :       9447. kBytes
   one-center:        171. kBytes
   wavefun   :      35168. kBytes
 
     INWAV:  cpu time    0.0000: real time    0.0022
 Broyden mixing: mesh for mixing (old mesh)
   NGX = 21   NGY = 21   NGZ = 77
  (NGX  = 84   NGY  = 84   NGZ  =320)
  gives a total of  33957 points

 initial charge density was supplied:
 charge density of overlapping atoms calculated
 number of electron     204.0000000 magnetization 
 keeping initial charge density in first step


--------------------------------------------------------------------------------------------------------


 Maximum index for non-local projection operator         3483
 Maximum index for augmentation-charges         2221 (set IRDMAX)


--------------------------------------------------------------------------------------------------------


 First call to EWALD:  gamma=   0.232
 Maximum number of real-space cells 4x 4x 1
 Maximum number of reciprocal cells 2x 2x 6

 FEWALD executed in parallel
    FEWALD:  cpu time    0.0000: real time    0.0020


----------------------------------------- Iteration    1(   1)  ---------------------------------------


    POTLOK:  cpu time    0.0560: real time    0.0559
    SETDIJ:  cpu time    0.0080: real time    0.0089
     EDDAV:  cpu time   12.1008: real time   12.1800
 BZINTS: Fermi energy: 26.172352;204.000000 electrons
         Band energy:1654.597931;  BLOECHL correction: -0.821013
       DOS:  cpu time    0.0440: real time    0.0417
    --------------------------------------------
      LOOP:  cpu time   12.2128: real time   12.3089

 eigenvalue-minimisations  : 11192
 total energy-change (2. order) : 0.2726891E+04  (-0.9462738E+04)
 number of electron     204.0000000 magnetization 
 augmentation part      204.0000000 magnetization 

 Free energy of the ion-electron system (eV)
  ---------------------------------------------------
  alpha Z        PSCENC =       356.49354171
  Ewald energy   TEWEN  =     -9258.26265422
  -Hartree energ DENC   =     -3274.33301705
  -exchange      EXHF   =         0.00000000
  -V(xc)+E(xc)   XCENC  =       471.00350032
  PAW double counting   =      7071.17828647    -6786.06564365
  entropy T*S    EENTRO =         0.00000000
  eigenvalues    EBANDS =      1654.59793123
  atomic energy  EATOM  =     12492.27920431
  Solvation  Ediel_sol  =         0.00000000
  ---------------------------------------------------
  free energy    TOTEN  =      2726.89114912 eV

  energy without entropy =     2726.89114912  energy(sigma->0) =     2726.89114912


--------------------------------------------------------------------------------------------------------




----------------------------------------- Iteration    1(   2)  ---------------------------------------


     EDDAV:  cpu time   12.2488: real time   12.2578
 BZINTS: Fermi energy: 11.997038;204.000000 electrons
         Band energy:-784.195579;  BLOECHL correction: -0.149698
       DOS:  cpu time    0.0400: real time    0.0403
    --------------------------------------------
      LOOP:  cpu time   12.2888: real time   12.3134

 eigenvalue-minimisations  : 11400
 total energy-change (2. order) :-0.2438794E+04  (-0.2220415E+04)
 number of electron     204.0000000 magnetization 
 augmentation part      204.0000000 magnetization 

 Free energy of the ion-electron system (eV)
  ---------------------------------------------------
  alpha Z        PSCENC =       356.49354171
  Ewald energy   TEWEN  =     -9258.26265422
  -Hartree energ DENC   =     -3274.33301705
  -exchange      EXHF   =         0.00000000
  -V(xc)+E(xc)   XCENC  =       471.00350032
  PAW double counting   =      7071.17828647    -6786.06564365
  entropy T*S    EENTRO =         0.00000000
  eigenvalues    EBANDS =      -784.19557944
  atomic energy  EATOM  =     12492.27920431
  Solvation  Ediel_sol  =         0.00000000
  ---------------------------------------------------
  free energy    TOTEN  =       288.09763845 eV

  energy without entropy =      288.09763845  energy(sigma->0) =      288.09763845


--------------------------------------------------------------------------------------------------------




----------------------------------------- Iteration    1(   3)  ---------------------------------------


     EDDAV:  cpu time   11.7127: real time   11.7223
 BZINTS: Fermi energy:  1.569880;204.000000 electrons
         Band energy:***********;  BLOECHL correction:  0.000000
       DOS:  cpu time    0.0080: real time    0.0100
    --------------------------------------------
      LOOP:  cpu time   11.7247: real time   11.7471

 eigenvalue-minimisations  : 10728
 total energy-change (2. order) :-0.5762569E+03  (-0.5622809E+03)
 number of electron     204.0000000 magnetization 
 augmentation part      204.0000000 magnetization 

 Free energy of the ion-electron system (eV)
  ---------------------------------------------------
  alpha Z        PSCENC =       356.49354171
  Ewald energy   TEWEN  =     -9258.26265422
  -Hartree energ DENC   =     -3274.33301705
  -exchange      EXHF   =         0.00000000
  -V(xc)+E(xc)   XCENC  =       471.00350032
  PAW double counting   =      7071.17828647    -6786.06564365
  entropy T*S    EENTRO =         0.00000000
  eigenvalues    EBANDS =     -1360.45249651
  atomic energy  EATOM  =     12492.27920431
  Solvation  Ediel_sol  =         0.00000000
  ---------------------------------------------------
  free energy    TOTEN  =      -288.15927862 eV

  energy without entropy =     -288.15927862  energy(sigma->0) =     -288.15927862


--------------------------------------------------------------------------------------------------------




----------------------------------------- Iteration    1(   4)  ---------------------------------------


     EDDAV:  cpu time   14.1929: real time   14.2010
 BZINTS: Fermi energy: -0.151616;204.000000 electrons
         Band energy:***********;  BLOECHL correction:  0.000000
       DOS:  cpu time    0.0080: real time    0.0078
    --------------------------------------------
      LOOP:  cpu time   14.2049: real time   14.2327

 eigenvalue-minimisations  : 13688
 total energy-change (2. order) :-0.5017310E+02  (-0.4985318E+02)
 number of electron     204.0000000 magnetization 
 augmentation part      204.0000000 magnetization 

 Free energy of the ion-electron system (eV)
  ---------------------------------------------------
  alpha Z        PSCENC =       356.49354171
  Ewald energy   TEWEN  =     -9258.26265422
  -Hartree energ DENC   =     -3274.33301705
  -exchange      EXHF   =         0.00000000
  -V(xc)+E(xc)   XCENC  =       471.00350032
  PAW double counting   =      7071.17828647    -6786.06564365
  entropy T*S    EENTRO =         0.00000000
  eigenvalues    EBANDS =     -1410.62559695
  atomic energy  EATOM  =     12492.27920431
  Solvation  Ediel_sol  =         0.00000000
  ---------------------------------------------------
  free energy    TOTEN  =      -338.33237906 eV

  energy without entropy =     -338.33237906  energy(sigma->0) =     -338.33237906


--------------------------------------------------------------------------------------------------------




----------------------------------------- Iteration    1(   5)  ---------------------------------------


     EDDAV:  cpu time   14.8769: real time   14.8862
 BZINTS: Fermi energy: -0.212098;204.000000 electrons
         Band energy:***********;  BLOECHL correction:  0.000000
       DOS:  cpu time    0.0080: real time    0.0078
    CHARGE:  cpu time    0.5320: real time    0.5321
    MIXING:  cpu time    0.0040: real time    0.0013
    --------------------------------------------
      LOOP:  cpu time   15.4210: real time   15.4417

 eigenvalue-minimisations  : 14528
 total energy-change (2. order) :-0.1786606E+01  (-0.1783576E+01)
 number of electron     203.9999995 magnetization 
 augmentation part       27.7513307 magnetization 

 Broyden mixing:
  rms(total) = 0.36230E+01    rms(broyden)= 0.36226E+01
  rms(prec ) = 0.39868E+01
  weight for this iteration     100.00

 Free energy of the ion-electron system (eV)
  ---------------------------------------------------
  alpha Z        PSCENC =       356.49354171
  Ewald energy   TEWEN  =     -9258.26265422
  -Hartree energ DENC   =     -3274.33301705
  -exchange      EXHF   =         0.00000000
  -V(xc)+E(xc)   XCENC  =       471.00350032
  PAW double counting   =      7071.17828647    -6786.06564365
  entropy T*S    EENTRO =         0.00000000
  eigenvalues    EBANDS =     -1412.41220322
  atomic energy  EATOM  =     12492.27920431
  Solvation  Ediel_sol  =         0.00000000
  ---------------------------------------------------
  free energy    TOTEN  =      -340.11898533 eV

  energy without entropy =     -340.11898533  energy(sigma->0) =     -340.11898533


--------------------------------------------------------------------------------------------------------




----------------------------------------- Iteration    1(   6)  ---------------------------------------


    POTLOK:  cpu time    0.0520: real time    0.0542
    SETDIJ:  cpu time    0.0080: real time    0.0085
     EDDAV:  cpu time   13.7169: real time   13.7237
 BZINTS: Fermi energy:  2.530868;204.000000 electrons
         Band energy:-966.391044;  BLOECHL correction:  0.000000
       DOS:  cpu time    0.0080: real time    0.0067
    CHARGE:  cpu time    0.5280: real time    0.5278
    MIXING:  cpu time    0.0000: real time    0.0012
    --------------------------------------------
      LOOP:  cpu time   14.3129: real time   14.3365

 eigenvalue-minimisations  : 13160
 total energy-change (2. order) : 0.3797585E+02  (-0.1712893E+02)
 number of electron     203.9999996 magnetization 
 augmentation part       24.4552467 magnetization 

 Broyden mixing:
  rms(total) = 0.10570E+01    rms(broyden)= 0.10563E+01
  rms(prec ) = 0.11129E+01
  weight for this iteration     100.00

 eigenvalues of (default mixing * dielectric matrix)
  average eigenvalue GAMMA=   0.9291
  0.9291

 Free energy of the ion-electron system (eV)
  ---------------------------------------------------
  alpha Z        PSCENC =       356.49354171
  Ewald energy   TEWEN  =     -9258.26265422
  -Hartree energ DENC   =     -3705.26980550
  -exchange      EXHF   =         0.00000000
  -V(xc)+E(xc)   XCENC  =       500.29797663
  PAW double counting   =      8235.74876438    -7957.03911543
  entropy T*S    EENTRO =         0.00000000
  eigenvalues    EBANDS =      -966.39104369
  atomic energy  EATOM  =     12492.27920431
  Solvation  Ediel_sol  =         0.00000000
  ---------------------------------------------------
  free energy    TOTEN  =      -302.14313181 eV

  energy without entropy =     -302.14313181  energy(sigma->0) =     -302.14313181


--------------------------------------------------------------------------------------------------------




----------------------------------------- Iteration    1(   7)  ---------------------------------------


    POTLOK:  cpu time    0.0560: real time    0.0540
    SETDIJ:  cpu time    0.0080: real time    0.0085
     EDDAV:  cpu time   14.3329: real time   14.3421
 BZINTS: Fermi energy:  2.836121;204.000000 electrons
         Band energy:-935.727005;  BLOECHL correction:  0.000000
       DOS:  cpu time    0.0080: real time    0.0078
    CHARGE:  cpu time    0.5240: real time    0.5243
    MIXING:  cpu time    0.0040: real time    0.0011
    --------------------------------------------
      LOOP:  cpu time   14.9329: real time   14.9564

 eigenvalue-minimisations  : 13912
 total energy-change (2. order) :-0.4695130E+00  (-0.8109011E+00)
 number of electron     203.9999996 magnetization 
 augmentation part       24.3020794 magnetization 

 Broyden mixing:
  rms(total) = 0.70554E+00    rms(broyden)= 0.70551E+00
  rms(prec ) = 0.73874E+00
  weight for this iteration     100.00

 eigenvalues of (default mixing * dielectric matrix)
  average eigenvalue GAMMA=   1.6476
  1.0713  2.2238

 Free energy of the ion-electron system (eV)
  ---------------------------------------------------
  alpha Z        PSCENC =       356.49354171
  Ewald energy   TEWEN  =     -9258.26265422
  -Hartree energ DENC   =     -3740.40822057
  -exchange      EXHF   =         0.00000000
  -V(xc)+E(xc)   XCENC  =       502.84874727
  PAW double counting   =      8462.33373686    -8182.16999489
  entropy T*S    EENTRO =         0.00000000
  eigenvalues    EBANDS =      -935.72700531
  atomic energy  EATOM  =     12492.27920431
  Solvation  Ediel_sol  =         0.00000000
  ---------------------------------------------------
  free energy    TOTEN  =      -302.61264484 eV

  energy without entropy =     -302.61264484  energy(sigma->0) =     -302.61264484


--------------------------------------------------------------------------------------------------------




----------------------------------------- Iteration    1(   8)  ---------------------------------------


    POTLOK:  cpu time    0.0520: real time    0.0539
    SETDIJ:  cpu time    0.0080: real time    0.0085
     EDDAV:  cpu time   14.2809: real time   14.2850
 BZINTS: Fermi energy:  2.981127;204.000000 electrons
         Band energy:-915.762725;  BLOECHL correction:  0.000000
       DOS:  cpu time    0.0040: real time    0.0078
    CHARGE:  cpu time    0.5320: real time    0.5288
    MIXING:  cpu time    0.0000: real time    0.0012
    --------------------------------------------
      LOOP:  cpu time   14.8769: real time   14.9035

 eigenvalue-minimisations  : 13776
 total energy-change (2. order) :-0.2163651E-01  (-0.1113930E+00)
 number of electron     203.9999996 magnetization 
 augmentation part       24.4378631 magnetization 

 Broyden mixing:
  rms(total) = 0.13384E+00    rms(broyden)= 0.13381E+00
  rms(prec ) = 0.14919E+00
  weight for this iteration     100.00

 eigenvalues of (default mixing * dielectric matrix)
  average eigenvalue GAMMA=   1.4515
  2.5153  0.9372  0.9019

 Free energy of the ion-electron system (eV)
  ---------------------------------------------------
  alpha Z        PSCENC =       356.49354171
  Ewald energy   TEWEN  =     -9258.26265422
  -Hartree energ DENC   =     -3764.04133850
  -exchange      EXHF   =         0.00000000
  -V(xc)+E(xc)   XCENC  =       504.92121452
  PAW double counting   =      8733.87936363    -8452.14088741
  entropy T*S    EENTRO =         0.00000000
  eigenvalues    EBANDS =      -915.76272539
  atomic energy  EATOM  =     12492.27920431
  Solvation  Ediel_sol  =         0.00000000
  ---------------------------------------------------
  free energy    TOTEN  =      -302.63428135 eV

  energy without entropy =     -302.63428135  energy(sigma->0) =     -302.63428135


--------------------------------------------------------------------------------------------------------




----------------------------------------- Iteration    1(   9)  ---------------------------------------


    POTLOK:  cpu time    0.0560: real time    0.0536
    SETDIJ:  cpu time    0.0080: real time    0.0085
     EDDAV:  cpu time   14.3889: real time   14.3968
 BZINTS: Fermi energy:  3.076552;204.000000 electrons
         Band energy:-902.022678;  BLOECHL correction:  0.000000
       DOS:  cpu time    0.0040: real time    0.0066
    CHARGE:  cpu time    0.5240: real time    0.5249
    MIXING:  cpu time    0.0040: real time    0.0012
    --------------------------------------------
      LOOP:  cpu time   14.9849: real time   15.0220

 eigenvalue-minimisations  : 13960
 total energy-change (2. order) : 0.1012458E-01  (-0.2466247E-01)
 number of electron     203.9999996 magnetization 
 augmentation part       24.3667907 magnetization 

 Broyden mixing:
  rms(total) = 0.81036E-01    rms(broyden)= 0.81032E-01
  rms(prec ) = 0.87191E-01
  weight for this iteration     100.00

 eigenvalues of (default mixing * dielectric matrix)
  average eigenvalue GAMMA=   1.2725
  2.5065  1.0086  0.7874  0.7874

 Free energy of the ion-electron system (eV)
  ---------------------------------------------------
  alpha Z        PSCENC =       356.49354171
  Ewald energy   TEWEN  =     -9258.26265422
  -Hartree energ DENC   =     -3778.85800999
  -exchange      EXHF   =         0.00000000
  -V(xc)+E(xc)   XCENC  =       506.01921825
  PAW double counting   =      8780.54866871    -8498.82144743
  entropy T*S    EENTRO =         0.00000000
  eigenvalues    EBANDS =      -902.02267810
  atomic energy  EATOM  =     12492.27920431
  Solvation  Ediel_sol  =         0.00000000
  ---------------------------------------------------
  free energy    TOTEN  =      -302.62415678 eV

  energy without entropy =     -302.62415678  energy(sigma->0) =     -302.62415678


--------------------------------------------------------------------------------------------------------




----------------------------------------- Iteration    1(  10)  ---------------------------------------


    POTLOK:  cpu time    0.0520: real time    0.0540
    SETDIJ:  cpu time    0.0120: real time    0.0084
     EDDAV:  cpu time   14.5249: real time   14.5330
 BZINTS: Fermi energy:  3.046182;204.000000 electrons
         Band energy:-900.168793;  BLOECHL correction:  0.000000
       DOS:  cpu time    0.0040: real time    0.0066
    CHARGE:  cpu time    0.5280: real time    0.5277
    MIXING:  cpu time    0.0040: real time    0.0012
    --------------------------------------------
      LOOP:  cpu time   15.1249: real time   15.1484

 eigenvalue-minimisations  : 14088
 total energy-change (2. order) : 0.3229907E-02  (-0.5492492E-02)
 number of electron     203.9999996 magnetization 
 augmentation part       24.3456012 magnetization 

 Broyden mixing:
  rms(total) = 0.35484E-01    rms(broyden)= 0.35476E-01
  rms(prec ) = 0.38718E-01
  weight for this iteration     100.00

 eigenvalues of (default mixing * dielectric matrix)
  average eigenvalue GAMMA=   1.3240
  2.5889  1.0967  1.0967  0.9188  0.9188

 Free energy of the ion-electron system (eV)
  ---------------------------------------------------
  alpha Z        PSCENC =       356.49354171
  Ewald energy   TEWEN  =     -9258.26265422
  -Hartree energ DENC   =     -3780.85507793
  -exchange      EXHF   =         0.00000000
  -V(xc)+E(xc)   XCENC  =       506.15502283
  PAW double counting   =      8776.34275422    -8494.60492469
  entropy T*S    EENTRO =         0.00000000
  eigenvalues    EBANDS =      -900.16879309
  atomic energy  EATOM  =     12492.27920431
  Solvation  Ediel_sol  =         0.00000000
  ---------------------------------------------------
  free energy    TOTEN  =      -302.62092687 eV

  energy without entropy =     -302.62092687  energy(sigma->0) =     -302.62092687


--------------------------------------------------------------------------------------------------------




----------------------------------------- Iteration    1(  11)  ---------------------------------------


    POTLOK:  cpu time    0.0560: real time    0.0545
    SETDIJ:  cpu time    0.0080: real time    0.0086
     EDDAV:  cpu time   13.8489: real time   13.8592
 BZINTS: Fermi energy:  3.112362;204.000000 electrons
         Band energy:-897.985360;  BLOECHL correction:  0.000000
       DOS:  cpu time    0.0080: real time    0.0079
    CHARGE:  cpu time    0.5280: real time    0.5284
    MIXING:  cpu time    0.0040: real time    0.0013
    --------------------------------------------
      LOOP:  cpu time   14.4529: real time   14.9303

 eigenvalue-minimisations  : 13256
 total energy-change (2. order) :-0.3335615E-02  (-0.1078975E-02)
 number of electron     203.9999996 magnetization 
 augmentation part       24.3382861 magnetization 

 Broyden mixing:
  rms(total) = 0.15009E-01    rms(broyden)= 0.15007E-01
  rms(prec ) = 0.16839E-01
  weight for this iteration     100.00

 eigenvalues of (default mixing * dielectric matrix)
  average eigenvalue GAMMA=   1.4447
  2.4736  2.4736  1.0388  1.0388  0.8216  0.8216

 Free energy of the ion-electron system (eV)
  ---------------------------------------------------
  alpha Z        PSCENC =       356.49354171
  Ewald energy   TEWEN  =     -9258.26265422
  -Hartree energ DENC   =     -3783.22468499
  -exchange      EXHF   =         0.00000000
  -V(xc)+E(xc)   XCENC  =       506.32154611
  PAW double counting   =      8771.77912730    -8490.02498259
  entropy T*S    EENTRO =         0.00000000
  eigenvalues    EBANDS =      -897.98536010
  atomic energy  EATOM  =     12492.27920431
  Solvation  Ediel_sol  =         0.00000000
  ---------------------------------------------------
  free energy    TOTEN  =      -302.62426248 eV

  energy without entropy =     -302.62426248  energy(sigma->0) =     -302.62426248


--------------------------------------------------------------------------------------------------------




----------------------------------------- Iteration    1(  12)  ---------------------------------------


    POTLOK:  cpu time    0.0520: real time    0.0537
    SETDIJ:  cpu time    0.0080: real time    0.0083
     EDDAV:  cpu time   12.9968: real time   13.0030
 BZINTS: Fermi energy:  3.095826;204.000000 electrons
         Band energy:-897.059649;  BLOECHL correction:  0.000000
       DOS:  cpu time    0.0080: real time    0.0079
    CHARGE:  cpu time    0.5320: real time    0.5293
    MIXING:  cpu time    0.0000: real time    0.0014
    --------------------------------------------
      LOOP:  cpu time   13.5968: real time   13.6141

 eigenvalue-minimisations  : 12272
 total energy-change (2. order) :-0.1448549E-02  (-0.5292200E-03)
 number of electron     203.9999996 magnetization 
 augmentation part       24.3326344 magnetization 

 Broyden mixing:
  rms(total) = 0.13303E-01    rms(broyden)= 0.13301E-01
  rms(prec ) = 0.14550E-01
  weight for this iteration     100.00

 eigenvalues of (default mixing * dielectric matrix)
  average eigenvalue GAMMA=   1.4694
  2.8264  2.4582  1.0983  1.0983  0.9943  0.9051  0.9051

 Free energy of the ion-electron system (eV)
  ---------------------------------------------------
  alpha Z        PSCENC =       356.49354171
  Ewald energy   TEWEN  =     -9258.26265422
  -Hartree energ DENC   =     -3784.21738916
  -exchange      EXHF   =         0.00000000
  -V(xc)+E(xc)   XCENC  =       506.37857981
  PAW double counting   =      8760.87227094    -8479.10961542
  entropy T*S    EENTRO =         0.00000000
  eigenvalues    EBANDS =      -897.05964900
  atomic energy  EATOM  =     12492.27920431
  Solvation  Ediel_sol  =         0.00000000
  ---------------------------------------------------
  free energy    TOTEN  =      -302.62571103 eV

  energy without entropy =     -302.62571103  energy(sigma->0) =     -302.62571103


--------------------------------------------------------------------------------------------------------




----------------------------------------- Iteration    1(  13)  ---------------------------------------


    POTLOK:  cpu time    0.0520: real time    0.0536
    SETDIJ:  cpu time    0.0120: real time    0.0082
     EDDAV:  cpu time   14.7409: real time   14.7516
 BZINTS: Fermi energy:  3.105992;204.000000 electrons
         Band energy:-896.899506;  BLOECHL correction:  0.000000
       DOS:  cpu time    0.0080: real time    0.0067
    CHARGE:  cpu time    0.5280: real time    0.5293
    MIXING:  cpu time    0.0040: real time    0.0014
    --------------------------------------------
      LOOP:  cpu time   15.3450: real time   15.3724

 eigenvalue-minimisations  : 14320
 total energy-change (2. order) : 0.6517668E-04  (-0.2212939E-03)
 number of electron     203.9999996 magnetization 
 augmentation part       24.3335679 magnetization 

 Broyden mixing:
  rms(total) = 0.11150E-01    rms(broyden)= 0.11149E-01
  rms(prec ) = 0.11985E-01
  weight for this iteration     100.00

 eigenvalues of (default mixing * dielectric matrix)
  average eigenvalue GAMMA=   1.4312
  2.8713  2.5080  1.1932  1.1932  1.0050  1.0050  0.8370  0.8370

 Free energy of the ion-electron system (eV)
  ---------------------------------------------------
  alpha Z        PSCENC =       356.49354171
  Ewald energy   TEWEN  =     -9258.26265422
  -Hartree energ DENC   =     -3784.39343113
  -exchange      EXHF   =         0.00000000
  -V(xc)+E(xc)   XCENC  =       506.38814988
  PAW double counting   =      8759.74160464    -8477.97255552
  entropy T*S    EENTRO =         0.00000000
  eigenvalues    EBANDS =      -896.89950552
  atomic energy  EATOM  =     12492.27920431
  Solvation  Ediel_sol  =         0.00000000
  ---------------------------------------------------
  free energy    TOTEN  =      -302.62564586 eV

  energy without entropy =     -302.62564586  energy(sigma->0) =     -302.62564586


--------------------------------------------------------------------------------------------------------




----------------------------------------- Iteration    1(  14)  ---------------------------------------


    POTLOK:  cpu time    0.0520: real time    0.0537
    SETDIJ:  cpu time    0.0080: real time    0.0082
     EDDAV:  cpu time   13.5288: real time   13.5355
 BZINTS: Fermi energy:  3.091619;204.000000 electrons
         Band energy:-896.856298;  BLOECHL correction:  0.000000
       DOS:  cpu time    0.0080: real time    0.0066
    CHARGE:  cpu time    0.5280: real time    0.5284
    MIXING:  cpu time    0.0000: real time    0.0014
    --------------------------------------------
      LOOP:  cpu time   14.1249: real time   14.1454

 eigenvalue-minimisations  : 12888
 total energy-change (2. order) : 0.1416383E-03  (-0.1419495E-03)
 number of electron     203.9999996 magnetization 
 augmentation part       24.3335565 magnetization 

 Broyden mixing:
  rms(total) = 0.41481E-02    rms(broyden)= 0.41468E-02
  rms(prec ) = 0.44989E-02
  weight for this iteration     100.00

 eigenvalues of (default mixing * dielectric matrix)
  average eigenvalue GAMMA=   1.4192
  2.9434  2.5050  1.3617  1.3617  0.8491  0.8491  0.9913  0.9913  0.9200

 Free energy of the ion-electron system (eV)
  ---------------------------------------------------
  alpha Z        PSCENC =       356.49354171
  Ewald energy   TEWEN  =     -9258.26265422
  -Hartree energ DENC   =     -3784.42855137
  -exchange      EXHF   =         0.00000000
  -V(xc)+E(xc)   XCENC  =       506.38925041
  PAW double counting   =      8759.61184606    -8477.85184361
  entropy T*S    EENTRO =         0.00000000
  eigenvalues    EBANDS =      -896.85629751
  atomic energy  EATOM  =     12492.27920431
  Solvation  Ediel_sol  =         0.00000000
  ---------------------------------------------------
  free energy    TOTEN  =      -302.62550422 eV

  energy without entropy =     -302.62550422  energy(sigma->0) =     -302.62550422


--------------------------------------------------------------------------------------------------------




----------------------------------------- Iteration    1(  15)  ---------------------------------------


    POTLOK:  cpu time    0.0560: real time    0.0539
    SETDIJ:  cpu time    0.0080: real time    0.0083
     EDDAV:  cpu time   13.5968: real time   13.6036
 BZINTS: Fermi energy:  3.078635;204.000000 electrons
         Band energy:-897.082854;  BLOECHL correction:  0.000000
       DOS:  cpu time    0.0040: real time    0.0067
    CHARGE:  cpu time    0.5320: real time    0.5294
    MIXING:  cpu time    0.0000: real time    0.0015
    --------------------------------------------
      LOOP:  cpu time   14.1969: real time   14.2190

 eigenvalue-minimisations  : 12952
 total energy-change (2. order) : 0.8506713E-05  (-0.4212997E-04)
 number of electron     203.9999996 magnetization 
 augmentation part       24.3358883 magnetization 

 Broyden mixing:
  rms(total) = 0.15537E-02    rms(broyden)= 0.15528E-02
  rms(prec ) = 0.17337E-02
  weight for this iteration     100.00

 eigenvalues of (default mixing * dielectric matrix)
  average eigenvalue GAMMA=   1.4132
  2.9970  2.5413  1.4942  1.4942  1.0122  1.0122  0.9083  0.9083  0.8821  0.8821

 Free energy of the ion-electron system (eV)
  ---------------------------------------------------
  alpha Z        PSCENC =       356.49354171
  Ewald energy   TEWEN  =     -9258.26265422
  -Hartree energ DENC   =     -3784.18456910
  -exchange      EXHF   =         0.00000000
  -V(xc)+E(xc)   XCENC  =       506.37143819
  PAW double counting   =      8759.12646364    -8477.36606606
  entropy T*S    EENTRO =         0.00000000
  eigenvalues    EBANDS =      -897.08285418
  atomic energy  EATOM  =     12492.27920431
  Solvation  Ediel_sol  =         0.00000000
  ---------------------------------------------------
  free energy    TOTEN  =      -302.62549571 eV

  energy without entropy =     -302.62549571  energy(sigma->0) =     -302.62549571


--------------------------------------------------------------------------------------------------------




----------------------------------------- Iteration    1(  16)  ---------------------------------------


    POTLOK:  cpu time    0.0560: real time    0.0536
    SETDIJ:  cpu time    0.0080: real time    0.0084
     EDDAV:  cpu time   15.1689: real time   15.1782
 BZINTS: Fermi energy:  3.147955;204.000000 electrons
         Band energy:-897.098698;  BLOECHL correction:  0.000000
       DOS:  cpu time    0.0080: real time    0.0080
    CHARGE:  cpu time    0.5320: real time    0.5314
    MIXING:  cpu time    0.0000: real time    0.0015
    --------------------------------------------
      LOOP:  cpu time   15.7730: real time   15.7932

 eigenvalue-minimisations  : 14872
 total energy-change (2. order) : 0.2314568E-05  (-0.1816595E-05)
 number of electron     203.9999996 magnetization 
 augmentation part       24.3362608 magnetization 

 Broyden mixing:
  rms(total) = 0.10481E-02    rms(broyden)= 0.10480E-02
  rms(prec ) = 0.11629E-02
  weight for this iteration     100.00

 eigenvalues of (default mixing * dielectric matrix)
  average eigenvalue GAMMA=   1.4346
  3.1359  2.5431  2.0524  1.0684  1.0684  0.8697  0.8697  1.0024  1.0262  1.0723
  1.0723

 Free energy of the ion-electron system (eV)
  ---------------------------------------------------
  alpha Z        PSCENC =       356.49354171
  Ewald energy   TEWEN  =     -9258.26265422
  -Hartree energ DENC   =     -3784.16210116
  -exchange      EXHF   =         0.00000000
  -V(xc)+E(xc)   XCENC  =       506.36856044
  PAW double counting   =      8759.31655045    -8477.55989706
  entropy T*S    EENTRO =         0.00000000
  eigenvalues    EBANDS =      -897.09869786
  atomic energy  EATOM  =     12492.27920431
  Solvation  Ediel_sol  =         0.00000000
  ---------------------------------------------------
  free energy    TOTEN  =      -302.62549340 eV

  energy without entropy =     -302.62549340  energy(sigma->0) =     -302.62549340


--------------------------------------------------------------------------------------------------------




----------------------------------------- Iteration    1(  17)  ---------------------------------------


    POTLOK:  cpu time    0.0560: real time    0.0541
    SETDIJ:  cpu time    0.0080: real time    0.0084
     EDDAV:  cpu time   13.2528: real time   13.2587
 BZINTS: Fermi energy:  3.138554;204.000000 electrons
         Band energy:-897.091839;  BLOECHL correction:  0.000000
       DOS:  cpu time    0.0080: real time    0.0079
    CHARGE:  cpu time    0.5280: real time    0.5295
    MIXING:  cpu time    0.0000: real time    0.0015
    --------------------------------------------
      LOOP:  cpu time   13.8529: real time   13.8885

 eigenvalue-minimisations  : 12552
 total energy-change (2. order) : 0.1376638E-05  (-0.2539867E-05)
 number of electron     203.9999996 magnetization 
 augmentation part       24.3363351 magnetization 

 Broyden mixing:
  rms(total) = 0.48040E-03    rms(broyden)= 0.48007E-03
  rms(prec ) = 0.52101E-03
  weight for this iteration     100.00

 eigenvalues of (default mixing * dielectric matrix)
  average eigenvalue GAMMA=   1.4791
[...]
   -.477E+02 0.167E+00 -.235E+02   0.527E+02 0.109E+01 0.165E+02   -.496E+01 -.126E+01 0.699E+01   -.193E-03 0.724E-04 0.148E-02
   -.477E+02 -.167E+00 -.235E+02   0.527E+02 -.109E+01 0.165E+02   -.496E+01 0.126E+01 0.699E+01   -.193E-03 -.724E-04 0.148E-02
   0.594E+02 0.705E+01 0.373E+02   -.747E+02 -.153E+02 -.470E+02   0.152E+02 0.828E+01 0.970E+01   -.954E-03 -.281E-03 -.290E-02
   0.594E+02 -.705E+01 0.373E+02   -.747E+02 0.153E+02 -.470E+02   0.152E+02 -.828E+01 0.970E+01   -.954E-03 0.281E-03 -.290E-02
   -.113E+00 -.139E+02 0.683E+02   -.135E+02 -.913E+01 -.735E+02   0.136E+02 0.230E+02 0.516E+01   0.437E-04 0.231E-03 -.167E-02
   -.113E+00 0.139E+02 0.683E+02   -.135E+02 0.913E+01 -.735E+02   0.136E+02 -.230E+02 0.516E+01   0.437E-04 -.231E-03 -.167E-02
   0.166E+02 -.504E+02 -.450E+02   -.154E+02 0.668E+02 0.562E+02   -.124E+01 -.163E+02 -.112E+02   0.276E-03 0.711E-03 0.299E-02
   0.166E+02 0.504E+02 -.450E+02   -.154E+02 -.668E+02 0.562E+02   -.124E+01 0.163E+02 -.112E+02   0.276E-03 -.711E-03 0.299E-02
 -----------------------------------------------------------------------------------------------
   0.103E+02 -.246E-09 -.969E+00   0.302E-13 0.000E+00 -.142E-13   -.103E+02 -.355E-14 0.967E+00   -.282E-02 -.965E-13 0.175E-03
 
 
 POSITION                                       TOTAL-FORCE (eV/Angst)
 -----------------------------------------------------------------------------------
     -2.69279     -3.61807    -14.25589        -0.000314      0.001602      0.000343
     -2.60464      3.61807     -4.55775        -0.000314     -0.001602      0.000343
     -2.48452     -0.62505    -12.17205        -0.000294      0.002196     -0.001284
     -2.39637      0.62505     -2.47391        -0.000294     -0.002196     -0.001284
     -3.92388     -0.73643     -9.26814        -0.000286     -0.000695      0.000017
     -4.01203      0.73643    -18.96627        -0.000286      0.000695      0.000017
     -1.36732      0.75269     -9.54487         0.000987     -0.001185      0.000379
     -1.45547     -0.75269    -19.24300         0.000987      0.001185      0.000379
     -2.87240     -2.30268     -6.63322         0.003073     -0.000921      0.000267
     -2.96055      2.30268    -16.33136         0.003073      0.000921      0.000267
     -2.43492      2.31262    -12.24212         0.001109     -0.000133     -0.001549
     -2.34677     -2.31262     -2.54398         0.001109      0.000133     -0.001549
     -2.80543      0.64284     -6.57560        -0.001369     -0.002387      0.002967
     -2.89358     -0.64284    -16.27374        -0.001369      0.002387      0.002967
     -1.96710     -3.04580    -10.65820        -0.000711     -0.002741      0.006570
     -1.87895      3.04580     -0.96007        -0.000711      0.002741      0.006570
     -3.33369      3.06538     -8.15899        -0.000043      0.001828     -0.003277
     -3.42183     -3.06538    -17.85712        -0.000043     -0.001828     -0.003277
     -4.15589     -0.94831    -12.73074         0.002489      0.001034      0.001050
     -4.06774      0.94831     -3.03261         0.002489     -0.001034      0.001050
     -2.46522     -0.46645    -10.44297         0.000899     -0.000204     -0.000086
     -2.37707      0.46645     -0.74484         0.000899      0.000204     -0.000086
     -1.25252      0.90230     -6.06330        -0.001268     -0.002078     -0.000571
     -1.34066     -0.90230    -15.76143        -0.001268      0.002078     -0.000571
     -2.10700      2.27749    -10.63826        -0.001103      0.000194     -0.000746
     -2.01885     -2.27749     -0.94013        -0.001103     -0.000194     -0.000746
     -2.87815      3.89582     -8.37859        -0.002642     -0.005266     -0.000420
     -2.96630     -3.89582    -18.07673        -0.002642      0.005266     -0.000420
     -1.97428      0.89129    -12.94708         0.001694     -0.001600      0.000877
     -1.88613     -0.89129     -3.24895         0.001694      0.001600      0.000877
     -2.85956      0.52945     -8.20845        -0.001777     -0.001235     -0.001733
     -2.94770     -0.52945    -17.90658        -0.001777      0.001235     -0.001733
     -3.32776     -0.75142     -5.86976        -0.002293     -0.001069     -0.001314
     -3.41591      0.75142    -15.56789        -0.002293      0.001069     -0.001314
     -3.26473     -2.23901     -8.32315        -0.000990     -0.001598     -0.000474
     -3.35288      2.23901    -18.02129        -0.000990      0.001598     -0.000474
     -1.49006     -1.95788    -12.80954         0.001638      0.000955     -0.000365
     -1.40192      1.95788     -3.11140         0.001638     -0.000955     -0.000365
     -2.42666     -3.87239    -10.43294         0.004352      0.005256      0.000038
     -2.33851      3.87239     -0.73481         0.004352     -0.005256      0.000038
     -3.70373      1.91066     -6.01263        -0.003151     -0.002688     -0.000691
     -3.79188     -1.91066    -15.71076        -0.003151      0.002688     -0.000691
 -----------------------------------------------------------------------------------
    total drift:                                0.002136     -0.000000     -0.001986


--------------------------------------------------------------------------------------------------------



  FREE ENERGIE OF THE ION-ELECTRON SYSTEM (eV)
  ---------------------------------------------------
  free  energy   TOTEN  =      -302.62549178 eV

  energy  without entropy=     -302.62549178  energy(sigma->0) =     -302.62549178
 


--------------------------------------------------------------------------------------------------------


    POTLOK:  cpu time    0.0640: real time    0.0650

 Electric field gradients (V/A^2)
---------------------------------------------------------------------
 ion       V_xx      V_yy      V_zz      V_xy      V_xz      V_yz
---------------------------------------------------------------------
   1      -2.568     6.806    -4.238     1.360     4.832     0.422
   2      -2.568     6.806    -4.238    -1.360     4.832    -0.422
   3      11.110     3.635   -14.746     1.371     2.652    -3.572
   4      11.110     3.635   -14.746    -1.371     2.652     3.572
   5      -3.098     1.419     1.678     6.511     7.732    11.445
   6      -3.098     1.419     1.678    -6.511     7.732   -11.445
   7       2.344    -7.152     4.808   -10.775    -7.006   -11.309
   8       2.344    -7.152     4.808    10.775    -7.006    11.309
   9       2.404    10.435   -12.839    -0.588    -6.830     3.159
  10       2.404    10.435   -12.839     0.588    -6.830    -3.159
  11       1.302     6.507    -7.809    -0.761    -3.067     1.477
  12       1.302     6.507    -7.809     0.761    -3.067    -1.477
  13       7.582     1.036    -8.618     0.357     0.955    -1.368
  14       7.582     1.036    -8.618    -0.357     0.955     1.368
  15      -6.261    24.361   -18.100    24.387    -7.395   -13.240
  16      -6.261    24.361   -18.100   -24.387    -7.395    13.240
  17      -6.548    24.743   -18.195    24.289    -7.406   -12.835
  18      -6.548    24.743   -18.195   -24.289    -7.406    12.835
  19      20.923     4.431   -25.354    30.196    -3.006   -35.947
  20      20.923     4.431   -25.354   -30.196    -3.006    35.947
  21      -3.262   -20.998    24.260    27.314   -10.498    14.969
  22      -3.262   -20.998    24.260   -27.314   -10.498   -14.969
  23      42.691   -13.248   -29.443    21.826    19.567   -19.625
  24      42.691   -13.248   -29.443   -21.826    19.567    19.625
  25     -44.184    -6.724    50.908     2.883    30.236    -4.412
  26     -44.184    -6.724    50.908    -2.883    30.236     4.412
  27      -4.132    74.418   -70.286    54.372   -35.961   -47.756
  28      -4.132    74.418   -70.286   -54.372   -35.961    47.756
  29     -25.447    47.072   -21.625    -9.263   -29.830    14.811
  30     -25.447    47.072   -21.625     9.263   -29.830   -14.811
  31     -22.026   -36.137    58.163    21.440    -4.623    13.266
  32     -22.026   -36.137    58.163   -21.440    -4.623   -13.266
  33     -24.986    47.877   -22.891     9.104   -30.875   -15.165
  34     -24.986    47.877   -22.891    -9.104   -30.875    15.165
  35     -33.113    16.657    16.455     3.626    27.362    -3.705
  36     -33.113    16.657    16.455    -3.626    27.362     3.705
  37      48.199   -11.055   -37.143   -19.190    10.826    17.101
  38      48.199   -11.055   -37.143    19.190    10.826   -17.101
  39      -0.514    71.472   -70.957    55.219   -30.919   -52.134
  40      -0.514    71.472   -70.957   -55.219   -30.919    52.134
  41      21.142    12.366   -33.508   -31.713    -2.704    27.994
  42      21.142    12.366   -33.508    31.713    -2.704   -27.994
---------------------------------------------------------------------


 Electric field gradients after diagonalization (V/A^2)
 (convention: |V_zz| > |V_xx| > |V_yy|)
----------------------------------------------------------------------
 ion       V_xx      V_yy      V_zz     asymmetry (V_yy - V_xx)/ V_zz 
----------------------------------------------------------------------
   1       7.132     1.195    -8.327       0.713
   2       7.132     1.195    -8.327       0.713
   3      11.516     4.205   -15.721       0.465
   4      11.516     4.205   -15.721       0.465
   5     -10.142    -7.706    17.848       0.137
   6     -10.142    -7.706    17.848       0.137
   7      11.687     9.339   -21.026       0.112
   8      11.687     9.339   -21.026       0.112
   9      11.174     4.566   -15.740       0.420
  10      11.174     4.566   -15.740       0.420
  11       6.887     1.951    -8.838       0.558
  12       6.887     1.951    -8.838       0.558
  13       7.650     1.219    -8.868       0.725
  14       7.650     1.219    -8.868       0.725
  15     -21.948   -19.743    41.691       0.053
  16     -21.948   -19.743    41.691       0.053
  17     -21.918   -19.738    41.656       0.052
  18     -21.918   -19.738    41.656       0.052
  19     -52.526    -0.078    52.604       0.997
  20     -52.526    -0.078    52.604       0.997
  21      29.049    16.580   -45.629       0.273
  22      29.049    16.580   -45.629       0.273
  23     -51.255    -0.952    52.207       0.964
  24     -51.255    -0.952    52.207       0.964
  25     -53.327    -6.557    59.884       0.781
  26     -53.327    -6.557    59.884       0.781
  27     -90.132   -30.332   120.464       0.496
  28     -90.132   -30.332   120.464       0.496
  29      53.420     0.126   -53.547       0.995
  30      53.420     0.126   -53.547       0.995
  31     -53.283    -6.746    60.029       0.775
  32     -53.283    -6.746    60.029       0.775
  33      54.295     0.699   -54.993       0.975
  34      54.295     0.699   -54.993       0.975
  35      28.897    16.722   -45.619       0.267
  36      28.897    16.722   -45.619       0.267
  37     -49.136    -5.091    54.226       0.812
  38     -49.136    -5.091    54.226       0.812
  39     -90.197   -30.354   120.551       0.496
  40     -90.197   -30.354   120.551       0.496
  41     -48.893    -4.967    53.860       0.816
  42     -48.893    -4.967    53.860       0.816
----------------------------------------------------------------------


 Eigenvectors
----------------------------------------------------------------------

 ion   1
 xx       0.196     0.973     0.119
 yy       0.736    -0.227     0.637
 zz      -0.647     0.037     0.761


 ion   2
 xx       0.196    -0.973     0.119
 yy      -0.736    -0.227    -0.637
 zz      -0.647    -0.037     0.761


 ion   3
 xx       0.988     0.135     0.081
 yy      -0.116     0.973    -0.200
 zz      -0.106     0.188     0.976


 ion   4
 xx       0.988    -0.135     0.081
 yy       0.116     0.973     0.200
 zz      -0.106    -0.188     0.976


 ion   5
 xx      -0.288    -0.587     0.757
 yy      -0.854     0.516     0.075
 zz      -0.434    -0.624    -0.649


 ion   6
 xx      -0.288     0.587     0.757
 yy       0.854     0.516    -0.075
 zz      -0.434     0.624    -0.649


 ion   7
 xx      -0.149    -0.445     0.883
 yy       0.863    -0.494    -0.103
 zz       0.482     0.747     0.458


 ion   8
 xx      -0.149     0.445     0.883
 yy      -0.863    -0.494     0.103
 zz       0.482    -0.747     0.458


 ion   9
 xx      -0.209     0.960     0.186
 yy      -0.914    -0.259     0.312
 zz       0.347    -0.105     0.932


 ion  10
 xx      -0.209    -0.960     0.186
 yy       0.914    -0.259    -0.312
 zz       0.347     0.105     0.932


 ion  11
 xx      -0.209     0.968     0.141
 yy      -0.936    -0.240     0.258
 zz       0.283    -0.078     0.956


 ion  12
 xx      -0.209    -0.968     0.141
 yy       0.936    -0.240    -0.258
 zz       0.283     0.078     0.956


 ion  13
 xx       0.998     0.042     0.055
 yy      -0.034     0.989    -0.141
 zz      -0.060     0.139     0.988


 ion  14
 xx       0.998    -0.042     0.055
 yy       0.034     0.989     0.141
 zz      -0.060    -0.139     0.988


 ion  15
 xx       0.144     0.201     0.969
 yy       0.871    -0.490    -0.028
 zz       0.469     0.848    -0.246


 ion  16
 xx       0.144    -0.201     0.969
 yy      -0.871    -0.490     0.028
 zz       0.469    -0.848    -0.246


 ion  17
 xx       0.255     0.131     0.958
 yy       0.847    -0.508    -0.156
 zz       0.466     0.852    -0.240


 ion  18
 xx       0.255    -0.131     0.958
 yy      -0.847    -0.508     0.156
 zz       0.466    -0.852    -0.240


 ion  19
 xx      -0.215     0.600     0.770
 yy      -0.713     0.442    -0.544
 zz       0.667     0.667    -0.333


 ion  20
 xx      -0.215    -0.600     0.770
 yy      -0.713    -0.442    -0.544
 zz      -0.667     0.667     0.333


 ion  21
 xx      -0.129     0.219     0.967
 yy       0.813     0.582    -0.023
 zz       0.568    -0.783     0.253


 ion  22
 xx       0.129     0.219    -0.967
 yy       0.813    -0.582    -0.023
 zz       0.568     0.783     0.253


 ion  23
 xx      -0.292     0.566     0.771
 yy      -0.114     0.780    -0.615
 zz      -0.950    -0.268    -0.163


 ion  24
 xx      -0.292    -0.566     0.771
 yy       0.114     0.780     0.615
 zz      -0.950     0.268    -0.163


 ion  25
 xx      -0.956     0.086     0.281
 yy       0.097     0.995     0.026
 zz       0.277    -0.052     0.959


 ion  26
 xx       0.956     0.086    -0.281
 yy       0.097    -0.995     0.026
 zz       0.277     0.052     0.959


 ion  27
 xx       0.280     0.181     0.943
 yy       0.847    -0.509    -0.153
 zz      -0.453    -0.841     0.296


 ion  28
 xx      -0.280     0.181    -0.943
 yy       0.847     0.509    -0.153
 zz      -0.453     0.841     0.296


 ion  29
 xx       0.212    -0.939    -0.270
 yy       0.659     0.342    -0.671
 zz      -0.722     0.035    -0.691


 ion  30
 xx       0.212     0.939    -0.270
 yy       0.659    -0.342    -0.671
 zz       0.722     0.035     0.691


 ion  31
 xx      -0.574     0.810    -0.120
 yy       0.819     0.571    -0.058
 zz      -0.021     0.132     0.991


 ion  32
 xx       0.574     0.810     0.120
 yy       0.819    -0.571    -0.058
 zz      -0.021    -0.132     0.991


 ion  33
 xx       0.213     0.939    -0.270
 yy       0.671    -0.341    -0.659
 zz       0.710     0.041     0.703


 ion  34
 xx       0.213    -0.939    -0.270
 yy       0.671     0.341    -0.659
 zz      -0.710     0.041    -0.703


 ion  35
 xx       0.391    -0.159     0.907
 yy       0.134     0.984     0.114
 zz      -0.911     0.077     0.406


 ion  36
 xx       0.391     0.159     0.907
 yy      -0.134     0.984    -0.114
 zz      -0.911    -0.077     0.406


 ion  37
 xx      -0.190    -0.480     0.856
 yy       0.197     0.836     0.512
 zz      -0.962     0.266    -0.064


 ion  38
 xx      -0.190     0.480     0.856
 yy      -0.197     0.836    -0.512
 zz      -0.962    -0.266    -0.064


 ion  39
 xx       0.176     0.247     0.953
 yy       0.871    -0.490    -0.034
 zz      -0.458    -0.836     0.302


 ion  40
 xx      -0.176     0.247    -0.953
 yy       0.871     0.490    -0.034
 zz      -0.458     0.836     0.302


 ion  41
 xx       0.188     0.487    -0.853
 yy       0.703     0.540     0.463
 zz      -0.686     0.687     0.241


 ion  42
 xx      -0.188     0.487     0.853
 yy       0.703    -0.540     0.463
 zz      -0.686    -0.687     0.241


----------------------------------------------------------------------

           NMR quadrupolar parameters
 
 Cq : quadrupolar parameter    Cq=e*Q*V_zz/h
 eta: asymmetry parameters     (V_yy - V_xx)/ V_zz
 Q  : nuclear electric quadrupole moment in mb (millibarn)
----------------------------------------------------------------------
 ion       Cq(MHz)       eta       Q (mb) 
----------------------------------------------------------------------
   1       0.000       0.713       0.000
   2       0.000       0.713       0.000
   3      -5.573       0.465     146.600
   4      -5.573       0.465     146.600
   5       6.327       0.137     146.600
   6       6.327       0.137     146.600
   7      -7.453       0.112     146.600
   8      -7.453       0.112     146.600
   9      -5.580       0.420     146.600
  10      -5.580       0.420     146.600
  11       0.000       0.558       0.000
  12       0.000       0.558       0.000
  13       0.000       0.725       0.000
  14       0.000       0.725       0.000
  15       0.000       0.053       0.000
  16       0.000       0.053       0.000
  17       0.000       0.052       0.000
  18       0.000       0.052       0.000
  19       0.000       0.997       0.000
  20       0.000       0.997       0.000
  21       0.000       0.273       0.000
  22       0.000       0.273       0.000
  23       0.000       0.964       0.000
  24       0.000       0.964       0.000
  25       0.000       0.781       0.000
  26       0.000       0.781       0.000
  27       0.000       0.496       0.000
  28       0.000       0.496       0.000
  29       0.000       0.995       0.000
  30       0.000       0.995       0.000
  31       0.000       0.775       0.000
  32       0.000       0.775       0.000
  33       0.000       0.975       0.000
  34       0.000       0.975       0.000
  35       0.000       0.267       0.000
  36       0.000       0.267       0.000
  37       0.000       0.812       0.000
  38       0.000       0.812       0.000
  39       0.000       0.496       0.000
  40       0.000       0.496       0.000
  41       0.000       0.816       0.000
  42       0.000       0.816       0.000
----------------------------------------------------------------------



--------------------------------------------------------------------------------------------------------


     LOOP+:  cpu time  265.1766: real time  266.2244
    4ORBIT:  cpu time    0.0000: real time    0.0000
 BZINTS: Fermi energy:  3.129744;204.000000 electrons
         Band energy:-897.081588;  BLOECHL correction:  0.000000

 total amount of memory used by VASP on root node    93395. kBytes
========================================================================

   base      :      30000. kBytes
   nonlr-proj:      13758. kBytes
   fftplans  :       4851. kBytes
   grid      :       9447. kBytes
   one-center:        171. kBytes
   wavefun   :      35168. kBytes
 
  
  
 General timing and accounting informations for this job:
 ========================================================
  
                  Total CPU time used (sec):      270.493
                            User time (sec):      269.117
                          System time (sec):        1.376
                         Elapsed time (sec):      272.053
  
                   Maximum memory used (kb):       95060.
                   Average memory used (kb):           0.
  
                          Minor page faults:        27813
                          Major page faults:           23
                 Voluntary context switches:        11142
