
Running Job 1 of 1 mol.qin
qchem mol.qin_44224.0 /tmp/qchem44224/ 1
srun -n 1 /global/common/edison/software/qchem/5.1beta/exe/qcprog.exe mol.qin_44224.0 /tmp/qchem44224/

Process 0 of 1 is on nid02264 - thread support 0
initial socket setup ...start
initial socket setup ...done 
now start server 0 ... 
Check license passed

                  Welcome to Q-Chem
     A Quantum Leap Into The Future Of Chemistry


 Q-Chem 5.1, Q-Chem, Inc., Pleasanton, CA (2018)

 Yihan Shao,  Zhengting Gan,  E. Epifanovsky,  A. T. B. Gilbert,  M. Wormit,  
 J. Kussmann,  A. W. Lange,  A. Behn,  Jia Deng,  Xintian Feng,  D. Ghosh,  
 M. Goldey,  P. R. Horn,  L. D. Jacobson,  I. Kaliman,  T. Kus,  A. Landau,  
 Jie Liu,  E. I. Proynov,  R. M. Richard,  R. P. Steele,  E. J. Sundstrom,  
 H. L. Woodcock III,  P. M. Zimmerman,  D. Zuev,  B. Albrecht,  E. Alguire,  
 S. A. Baeppler,  D. Barton,  Z. Benda,  Y. A. Bernard,  E. J. Berquist,  
 K. B. Bravaya,  H. Burton,  D. Casanova,  Chun-Min Chang,  Yunqing Chen,  
 A. Chien,  K. D. Closser,  M. P. Coons,  S. Coriani,  S. Dasgupta,  
 A. L. Dempwolff,  M. Diedenhofen,  Hainam Do,  R. G. Edgar,  Po-Tung Fang,  
 S. Faraji,  S. Fatehi,  Qingguo Feng,  K. D. Fenk,  J. Fosso-Tande,  
 Qinghui Ge,  A. Ghysels,  G. Gidofalvi,  J. Gomes,  J. Gonthier,  A. Gunina,  
 D. Hait,  M. W. D. Hanson-Heine,  P. H. P. Harbach,  A. W. Hauser,  
 J. E. Herr,  E. G. Hohenstein,  Z. C. Holden,  Kerwin Hui,  B. C. Huynh,  
 T.-C. Jagau,  Hyunjun Ji,  B. Kaduk,  K. Khistyaev,  Jaehoon Kim,  
 P. Klunzinger,  K. Koh,  D. Kosenkov,  L. Koulias,  T. Kowalczyk,  
 C. M. Krauter,  A. Kunitsa,  Ka Un Lao,  A. Laurent,  K. V. Lawler,  
 Joonho Lee,  D. Lefrancois,  S. Lehtola,  D. S. Levine,  Yi-Pei Li,  
 You-Sheng Lin,  Fenglai Liu,  E. Livshits,  A. Luenser,  P. Manohar,  
 E. Mansoor,  S. F. Manzer,  Shan-Ping Mao,  Yuezhi Mao,  N. Mardirossian,  
 A. V. Marenich,  T. Markovich,  L. A. Martinez-Martinez,  S. A. Maurer,  
 N. J. Mayhall,  S. C. McKenzie,  J.-M. Mewes,  A. F. Morrison,  
 J. W. Mullinax,  K. Nanda,  T. S. Nguyen-Beck,  R. Olivares-Amaya,  
 J. A. Parkhill,  T. M. Perrine,  F. Plasser,  P. Pokhilko,  S. Prager,  
 A. Prociuk,  E. Ramos,  D. R. Rehn,  F. Rob,  M. Schneider,  N. Sergueev,  
 S. M. Sharada,  S. Sharma,  D. W. Small,  T. Stauch,  T. Stein,  
 Yu-Chuan Su,  A. J. W. Thom,  A. Tkatchenko,  T. Tsuchimochi,  N. M. Tubman,  
 L. Vogt,  M. L. Vidal,  O. Vydrov,  M. A. Watson,  J. Wenzel,  
 M. de Wergifosse,  T. A. Wesolowski,  A. White,  J. Witte,  A. Yamada,  
 Jun Yang,  K. Yao,  S. Yeganeh,  S. R. Yost,  Zhi-Qiang You,  A. Zech,  
 Igor Ying Zhang,  Xing Zhang,  Yan Zhao,  Ying Zhu,  B. R. Brooks,  
 G. K. L. Chan,  C. J. Cramer,  M. S. Gordon,  W. J. Hehre,  A. Klamt,  
 M. W. Schmidt,  C. D. Sherrill,  D. G. Truhlar,  A. Aspuru-Guzik,  R. Baer,  
 A. T. Bell,  N. A. Besley,  Jeng-Da Chai,  R. A. DiStasio Jr.,  A. Dreuw,  
 B. D. Dunietz,  T. R. Furlani,  Chao-Ping Hsu,  Yousung Jung,  Jing Kong,  
 D. S. Lambrecht,  WanZhen Liang,  C. Ochsenfeld,  V. A. Rassolov,  
 L. V. Slipchenko,  J. E. Subotnik,  T. Van Voorhis,  J. M. Herbert,  
 A. I. Krylov,  P. M. W. Gill,  M. Head-Gordon

 Contributors to earlier versions of Q-Chem not listed above: 
 R. D. Adamson,  B. Austin,  J. Baker,  G. J. O. Beran,  K. Brandhorst,  
 S. T. Brown,  E. F. C. Byrd,  A. K. Chakraborty,  C.-L. Cheng,  
 Siu Hung Chien,  D. M. Chipman,  D. L. Crittenden,  H. Dachsel,  
 R. J. Doerksen,  A. D. Dutoi,  L. Fusti-Molnar,  W. A. Goddard III,  
 A. Golubeva-Zadorozhnaya,  S. R. Gwaltney,  G. Hawkins,  A. Heyden,  
 S. Hirata,  G. Kedziora,  F. J. Keil,  C. Kelley,  Jihan Kim,  R. A. King,  
 R. Z. Khaliullin,  P. P. Korambath,  W. Kurlancheek,  A. M. Lee,  M. S. Lee,  
 S. V. Levchenko,  Ching Yeh Lin,  D. Liotard,  R. C. Lochan,  I. Lotan,  
 P. E. Maslen,  N. Nair,  D. P. O'Neill,  D. Neuhauser,  E. Neuscamman,  
 C. M. Oana,  R. Olson,  B. Peters,  R. Peverati,  P. A. Pieniazek,  
 Y. M. Rhee,  J. Ritchie,  M. A. Rohrdanz,  E. Rosta,  N. J. Russ,  
 H. F. Schaefer III,  N. E. Schultz,  N. Shenvi,  A. C. Simmonett,  A. Sodt,  
 D. Stuck,  K. S. Thanthiriwatte,  V. Vanovschi,  Tao Wang,  A. Warshel,  
 C. F. Williams,  Q. Wu,  X. Xu,  W. Zhang

 Please cite Q-Chem as follows:
 Y. Shao et al., Mol. Phys. 113, 184-215 (2015)
 DOI: 10.1080/00268976.2014.952696

 Q-Chem 5.1.0 for Intel X86 EM64T Linux

 Parts of Q-Chem use Armadillo 8.300.2 (Tropical Shenanigans).
 http://arma.sourceforge.net/

 Q-Chem begins on Wed Jul 11 17:54:17 2018  

Host: edison04
0

     Scratch files written to /tmp/qchem44224//
 Apr1918  _RNUM -1
 Parallel job on  1  processors
Processing $rem in /global/common/edison/software/qchem/5.1beta/config/preferences.
 MEM_TOTAL  2000 

Checking the input file for inconsistencies... 	...done.

--------------------------------------------------------------
User input:
--------------------------------------------------------------
$molecule
-1 1
O      0.5294663416      0.8006893317     -0.1881589317
C     -0.1769258401     -0.1822039535      0.6343031925
C      1.0531482846     -0.5108783789     -0.1340293807
C     -1.5669310936     -0.5896300922      0.2910243810
H      0.0580181965      0.0377963193      1.6851547806
H      2.0307111063     -0.5908111547      0.3562275312
H      0.9417144720     -1.0946727073     -1.0491279307
H     -1.9249341119     -0.0044268853     -0.5674110343
H     -1.5983962133     -1.6565672512      0.0143377930
$end

$rem
job_type = opt
basis = 6-311++g*
max_scf_cycles = 200
gen_scfman = true
scf_algorithm = gdm
method = wb97xd
geom_opt_max_cycles = 200
$end
--------------------------------------------------------------
 ----------------------------------------------------------------
             Standard Nuclear Orientation (Angstroms)
    I     Atom           X                Y                Z
 ----------------------------------------------------------------
    1      O       0.7986351305     0.7790051773    -0.2108571184
    2      C      -0.2373145596     0.0166111877     0.4870516970
    3      C       0.9669219002    -0.6205280527    -0.1090290948
    4      C      -1.6232558209    -0.0377927284    -0.0534647594
    5      H      -0.1035952906     0.1886837845     1.5642694369
    6      H       1.8158772691    -0.9330168910     0.5106447438
    7      H       0.8422400457    -1.1733747865    -1.0414740491
    8      H      -1.7014668438     0.6037197606    -0.9422195507
    9      H      -1.8802453423    -1.0677957254    -0.3517106901
 ----------------------------------------------------------------
 Molecular Point Group                 C1    NOp =  1
 Largest Abelian Subgroup              C1    NOp =  1
 Nuclear Repulsion Energy =   116.2342054427 hartrees
 There are       16 alpha and       16 beta electrons
 Requested basis set is 6-311++G(d)
 There are 44 shells and 108 basis functions

 Total QAlloc Memory Limit   2000 MB
 Mega-Array Size       188 MB
 MEM_STATIC part       192 MB
 A cutoff of  1.0D-12 yielded    983 shell pairs
 There are      6009 function pairs (      6471 Cartesian)
 
 -------------------------------------------------------
 OpenMP Integral Computing Module                       
 Release: version 1.0, May 2013, Q-Chem Inc. Pittsburgh 
 -------------------------------------------------------
 Integral Job Info:
 Integral job number is                      11
 Integral operator is                         1
 short-range coefficients              22203600
 long-range coefficients              100000000
 Omega coefficients                         200
 if combine SR and LR in K                    1
 Integral screening is                        0
 Integral computing path is                   2
 max size of driver memory is            800000
 size of driver memory is                593474
 size of scratch memory is              2428936
 max col of scratch BK array               1296
 max len of scratch array in speh3          155
 max len of scratch index in speh4           18
 max int batch size is                      520
 min int batch size is                       52
 fixed nKL is                                52
 max L of basis functions is                  2
 order of int derivative is                   0
 number of shells is                         44
 number of basis is                         112
 number of cartesian basis is               112
 number of contracted shell pairs           983
 number of primitive shell pairs           2749
 maxK2 (contraction) of shell pair           36
 max number of K2 of shell pair               1
 max number of CS2 of shell pair            186
 max number of PS2 of shell pair            378
 mem total for path MDJ                  514994
 -------------------------------------------------------
 Smallest overlap matrix eigenvalue = 6.14E-05

 Scale SEOQF with 1.000000e-01/1.000000e-01/1.000000e-01

 Standard Electronic Orientation quadrupole field applied
 Nucleus-field energy     =     0.0000000014 hartrees
 Guess from superposition of atomic densities
 Warning:  Energy on first SCF cycle will be non-variational
 SAD guess density has 31.000000 electrons

 -----------------------------------------------------------------------
  General SCF calculation program by
  Eric Jon Sundstrom, Paul Horn, Yuezhi Mao, Dmitri Zuev, Alec White,
  David Stuck, Shaama M.S., Shane Yost, Joonho Lee, David Small,
  Daniel Levine, Susi Lehtola, Hugh Burton, Evgeny Epifanovsky
 -----------------------------------------------------------------------
 Exchange:     0.2220 Hartree-Fock + 1.0000 wB97X-D + LR-HF
 Correlation:  1.0000 wB97X-D
 Using SG-2 standard quadrature grid
 Dispersion:   Grimme D
 using 32 threads for integral computing
 -------------------------------------------------------
 OpenMP Integral computing Module                
 Release: version 1.0, May 2013, Q-Chem Inc. Pittsburgh 
 -------------------------------------------------------
 using 32 threads for integral computing
 -------------------------------------------------------
 OpenMP Integral computing Module                
 Release: version 1.0, May 2013, Q-Chem Inc. Pittsburgh 
 -------------------------------------------------------
 -------------------------------------------------------
 OpenMP BLAS3 based DFT computing Module                
 Release: version 1.0, May 2013, Q-Chem Inc. Pittsburgh 
 -------------------------------------------------------
 A restricted SCF calculation will be
 performed using Roothaan-Hall, GDM
 SCF converges when RMS gradient is below 1.0e-08
 ---------------------------------------
  Cycle       Energy         DIIS error
 ---------------------------------------
    1    -193.2120341842      6.08e-02  Roothaan Step
 ---------------------------------------
  Cycle       Energy        RMS Gradient
 ---------------------------------------
    1    -192.2732484816      1.43e-01   Descent step
    2    -192.3969894250      7.05e-02   Normal BFGS step
    3    -192.4202903791      1.07e-02   Normal BFGS step
    4    -192.4218058314      4.25e-03   Normal BFGS step
    5    -192.4220478882      2.47e-03   Normal BFGS step
    6    -192.4221324092      1.13e-03   Normal BFGS step
    7    -192.4221462046      1.15e-03   Normal BFGS step
    8    -192.4221532493      5.09e-04   Normal BFGS step
    9    -192.4221542590      1.54e-04   Normal BFGS step
   10    -192.4221543994      6.17e-05   Normal BFGS step
   11    -192.4221544425      3.26e-05   Normal BFGS step
   12    -192.4221544495      1.43e-05   Normal BFGS step
   13    -192.4221544508      3.49e-06   Normal BFGS step
   14    -192.4221544509      1.70e-06   Normal BFGS step
   15    -192.4221544509      6.06e-07   Normal BFGS step
   16    -192.4221544509      2.11e-07   Normal BFGS step
   17    -192.4221544509      5.88e-08   Normal BFGS step
   18    -192.4221544509      1.78e-08   Normal BFGS step
   19    -192.4221544509      1.02e-08   Normal BFGS step
   20    -192.4221544509      3.75e-09  Convergence criterion met
 ---------------------------------------
 SCF time:   CPU 327.49s  wall 12.00s 
 SCF   energy in the final basis set =     -192.4221544509
 
 --------------------------------------------------------------
 
                    Orbital Energies (a.u.)
 --------------------------------------------------------------
 
 Alpha MOs
 -- Occupied --
-19.075 -10.154 -10.145 -10.012  -0.988  -0.606  -0.568  -0.478
 -0.404  -0.356  -0.303  -0.256  -0.245  -0.191  -0.170  -0.021
 -- Virtual --
  0.154   0.173   0.184   0.200   0.205   0.235   0.260   0.275
  0.293   0.297   0.308   0.312   0.332   0.334   0.343   0.348
  0.368   0.380   0.412   0.423   0.437   0.465   0.480   0.486
  0.487   0.511   0.537   0.579   0.602   0.629   0.716   0.735
  0.776   0.797   0.830   0.845   0.849   0.909   0.916   0.942
  0.950   0.957   0.968   0.999   1.110   1.191   1.211   1.325
  1.354   1.444   1.525   1.603   1.654   1.706   1.791   1.805
  1.828   1.931   1.985   2.018   2.049   2.108   2.183   2.242
  2.384   2.424   2.710   2.723   2.816   2.852   2.918   3.017
  3.044   3.214   3.261   3.331   3.378   3.393   3.433   3.469
  3.551   3.853   3.948   4.129   4.538   5.328   5.621   5.774
 23.774  24.028  24.112  50.198
 --------------------------------------------------------------
 
          Ground-State Mulliken Net Atomic Charges

     Atom                 Charge (a.u.)
  ----------------------------------------
      1 O                    -0.172327
      2 C                    -0.002206
      3 C                    -0.405124
      4 C                    -0.994416
      5 H                     0.175933
      6 H                     0.104560
      7 H                     0.161269
      8 H                     0.073441
      9 H                     0.058869
  ----------------------------------------
  Sum of atomic charges =    -1.000000

 -----------------------------------------------------------------
                    Cartesian Multipole Moments
 -----------------------------------------------------------------
    Charge (ESU x 10^10)
                -4.8032
    Dipole Moment (Debye)
         X       6.0128      Y      -1.9079      Z      -0.3011
       Tot       6.3154
    Quadrupole Moments (Debye-Ang)
        XX     -49.1496     XY      -0.4890     YY     -31.8757
        XZ       3.6938     YZ       0.0352     ZZ     -31.5196
    Octopole Moments (Debye-Ang^2)
       XXX      63.6666    XXY      -4.8452    XYY       6.6027
       YYY       1.0907    XXZ     -10.3189    XYZ       1.7901
       YYZ      -0.7530    XZZ      10.8942    YZZ       1.2541
       ZZZ      -0.8700
    Hexadecapole Moments (Debye-Ang^3)
      XXXX    -440.6595   XXXY      15.7756   XXYY     -77.0918
      XYYY       5.3108   YYYY     -99.0360   XXXZ      33.5734
      XXYZ      -3.6578   XYYZ       2.8938   YYYZ      -2.0327
      XXZZ     -77.3220   XYZZ       0.5470   YYZZ     -31.7215
      XZZZ       6.7727   YZZZ      -2.7545   ZZZZ     -89.9606
 -----------------------------------------------------------------
 Calculating analytic gradient of the SCF energy
 Gradient of SCF Energy
            1           2           3           4           5           6
    1   0.0000136  -0.0000289   0.0000586   0.0001676  -0.0001161   0.0000964
    2   0.0001309  -0.0003907   0.0003363   0.0008537  -0.0005348   0.0001524
    3   0.0002047   0.0000991  -0.0003015  -0.0001936   0.0000497  -0.0000795
            7           8           9
    1  -0.0000471   0.0001009  -0.0002450
    2  -0.0001239  -0.0003818  -0.0000422
    3   0.0000441  -0.0002999   0.0004770
 Max gradient component =       8.537E-04
 RMS gradient           =       2.802E-04
 Gradient time:  CPU 27.47 s  wall 1.55 s
 Geometry Optimization Parameters
   NAtoms,    NIC,     NZ,  NCons,   NDum,   NFix, NCnnct, MaxDiis
        9      61       0       0       0       0       0       0


** GEOMETRY OPTIMIZATION IN DELOCALIZED INTERNAL COORDINATES **
   Searching for a Minimum

   Optimization Cycle:   1

                       Coordinates (Angstroms)
     ATOM                X               Y               Z
      1  O         0.7986351305    0.7790051773   -0.2108571184
      2  C        -0.2373145596    0.0166111877    0.4870516970
      3  C         0.9669219002   -0.6205280527   -0.1090290948
      4  C        -1.6232558209   -0.0377927284   -0.0534647594
      5  H        -0.1035952906    0.1886837845    1.5642694369
      6  H         1.8158772691   -0.9330168910    0.5106447438
      7  H         0.8422400457   -1.1733747865   -1.0414740491
      8  H        -1.7014668438    0.6037197606   -0.9422195507
      9  H        -1.8802453423   -1.0677957254   -0.3517106901
   Point Group: c1    Number of degrees of freedom:    21


   Energy is   -192.422154451


 Attempting to Generate Delocalized Internal Coordinates

 21 Hessian modes will be used to form the next step
  Hessian Eigenvalues:
     0.010686    0.022450    0.028097    0.032693    0.044268    0.055514
     0.096479    0.113645    0.122763    0.126228    0.160000    0.160000
     0.300322    0.306582    0.333876    0.336026    0.337886    0.338061
     0.340692    0.346785    0.389835

 Minimum Search - Taking Simple RFO Step
 Searching for Lamda that Minimizes Along All modes
 Value Taken    Lamda =  -0.00007179
 Step Taken.  Stepsize is  0.080399

                             Maximum     Tolerance    Cnvgd?
         Gradient           0.000428      0.000300      NO
         Displacement       0.037706      0.001200      NO
         Energy change     *********      0.000001      NO


 New Cartesian Coordinates Obtained by Inverse Iteration

 Displacement from previous Coordinates is:  0.072386
 ----------------------------------------------------------------
             Standard Nuclear Orientation (Angstroms)
    I     Atom           X                Y                Z
 ----------------------------------------------------------------
    1      O       0.7972029089     0.7755533702    -0.2183334705
    2      C      -0.2370118541     0.0173489899     0.4865535587
    3      C       0.9663402153    -0.6233141929    -0.1071146678
    4      C      -1.6238311987    -0.0437773030    -0.0510793180
    5      H      -0.1011127960     0.1984556847     1.5621044929
    6      H       1.8150694872    -0.9330462054     0.5142573581
    7      H       0.8411742843    -1.1811584251    -1.0364895492
    8      H      -1.7129517833     0.6159694375    -0.9252968750
    9      H      -1.8670827753    -1.0705196298    -0.3713909142
 ----------------------------------------------------------------
 Molecular Point Group                 C1    NOp =  1
 Largest Abelian Subgroup              C1    NOp =  1
 Nuclear Repulsion Energy =   116.2390053733 hartrees
 There are       16 alpha and       16 beta electrons
 Applying Cartesian multipole field
    Component          Value
    ---------          -----
     (2,0,0)        1.00000E-11
     (0,2,0)        2.00000E-11
     (0,0,2)       -3.00000E-11
 Nucleus-field energy     =     0.0000000014 hartrees
 Requested basis set is 6-311++G(d)
 There are 44 shells and 108 basis functions
 A cutoff of  1.0D-12 yielded    983 shell pairs
 There are      6009 function pairs (      6471 Cartesian)
 Smallest overlap matrix eigenvalue = 6.10E-05
 Guess MOs from SCF MO coefficient file
 Reading MOs from coefficient file
 Reading MOs from coefficient file

 -----------------------------------------------------------------------
  General SCF calculation program by
  Eric Jon Sundstrom, Paul Horn, Yuezhi Mao, Dmitri Zuev, Alec White,
  David Stuck, Shaama M.S., Shane Yost, Joonho Lee, David Small,
  Daniel Levine, Susi Lehtola, Hugh Burton, Evgeny Epifanovsky
 -----------------------------------------------------------------------
 Exchange:     0.2220 Hartree-Fock + 1.0000 wB97X-D + LR-HF
 Correlation:  1.0000 wB97X-D
 Using SG-2 standard quadrature grid
 Dispersion:   Grimme D
 using 32 threads for integral computing
 -------------------------------------------------------
 OpenMP Integral computing Module                
 Release: version 1.0, May 2013, Q-Chem Inc. Pittsburgh 
 -------------------------------------------------------
 using 32 threads for integral computing
 -------------------------------------------------------
 OpenMP Integral computing Module                
 Release: version 1.0, May 2013, Q-Chem Inc. Pittsburgh 
 -------------------------------------------------------
 -------------------------------------------------------
 OpenMP BLAS3 based DFT computing Module                
 Release: version 1.0, May 2013, Q-Chem Inc. Pittsburgh 
 -------------------------------------------------------
 A restricted SCF calculation will be
 performed using Roothaan-Hall, GDM
 SCF converges when RMS gradient is below 1.0e-08
 ---------------------------------------
  Cycle       Energy         DIIS error
 ---------------------------------------
    1    -192.4220237000      2.61e-04  Roothaan Step
 ---------------------------------------
  Cycle       Energy        RMS Gradient
 ---------------------------------------
    1    -192.4222157694      1.23e-03   Normal BFGS step
    2    -192.4222353509      6.77e-04   Normal BFGS step
    3    -192.4222396724      2.64e-04   Normal BFGS step
    4    -192.4222403279      1.90e-04   Normal BFGS step
    5    -192.4222407194      5.92e-05   Normal BFGS step
    6    -192.4222407417      3.42e-05   Normal BFGS step
    7    -192.4222407566      1.26e-05   Normal BFGS step
    8    -192.4222407580      5.64e-06   Normal BFGS step
    9    -192.4222407584      2.44e-06   Normal BFGS step
   10    -192.4222407584      1.19e-06   Normal BFGS step
   11    -192.4222407585      3.80e-07   Normal BFGS step
   12    -192.4222407585      2.23e-07   Normal BFGS step
   13    -192.4222407585      9.24e-08   Normal BFGS step
   14    -192.4222407585      2.60e-08   Normal BFGS step
   15    -192.4222407585      8.75e-09  Convergence criterion met
 ---------------------------------------
 SCF time:   CPU 253.32s  wall 9.00s 
 SCF   energy in the final basis set =     -192.4222407585
 
 --------------------------------------------------------------
 
                    Orbital Energies (a.u.)
 --------------------------------------------------------------
 
 Alpha MOs
 -- Occupied --
-19.074 -10.154 -10.145 -10.012  -0.988  -0.606  -0.568  -0.478
 -0.404  -0.356  -0.302  -0.256  -0.246  -0.190  -0.169  -0.022
 -- Virtual --
  0.154   0.173   0.184   0.200   0.205   0.235   0.261   0.275
  0.293   0.297   0.307   0.312   0.331   0.334   0.344   0.348
  0.368   0.381   0.412   0.424   0.436   0.466   0.481   0.486
  0.487   0.510   0.537   0.578   0.602   0.630   0.716   0.734
  0.776   0.798   0.830   0.845   0.849   0.908   0.916   0.942
  0.950   0.956   0.968   0.998   1.111   1.189   1.211   1.326
  1.355   1.444   1.525   1.603   1.655   1.706   1.789   1.807
  1.829   1.930   1.987   2.017   2.048   2.109   2.183   2.243
  2.384   2.424   2.710   2.723   2.816   2.853   2.918   3.017
  3.045   3.212   3.261   3.331   3.378   3.394   3.434   3.468
  3.551   3.852   3.948   4.130   4.538   5.329   5.621   5.774
 23.774  24.027  24.112  50.198
 --------------------------------------------------------------
 
          Ground-State Mulliken Net Atomic Charges

     Atom                 Charge (a.u.)
  ----------------------------------------
      1 O                    -0.170215
      2 C                    -0.002520
      3 C                    -0.408336
      4 C                    -0.996189
      5 H                     0.176361
      6 H                     0.106990
      7 H                     0.160930
      8 H                     0.073853
      9 H                     0.059126
  ----------------------------------------
  Sum of atomic charges =    -1.000000

 -----------------------------------------------------------------
                    Cartesian Multipole Moments
 -----------------------------------------------------------------
    Charge (ESU x 10^10)
                -4.8032
    Dipole Moment (Debye)
         X       6.0277      Y      -1.8369      Z      -0.3204
       Tot       6.3095
    Quadrupole Moments (Debye-Ang)
        XX     -49.1621     XY      -0.7144     YY     -31.7809
        XZ       3.7926     YZ       0.1369     ZZ     -31.5848
    Octopole Moments (Debye-Ang^2)
       XXX      63.9102    XXY      -4.2446    XYY       6.5222
       YYY       1.4535    XXZ     -10.5214    XYZ       1.6538
       YYZ      -0.8029    XZZ      11.0239    YZZ       1.3426
       ZZZ      -0.9084
    Hexadecapole Moments (Debye-Ang^3)
      XXXX    -440.7619   XXXY      13.9348   XXYY     -76.7974
      XYYY       4.6834   YYYY     -98.7306   XXXZ      34.3091
      XXYZ      -3.3008   XYYZ       3.0462   YYYZ      -1.7473
      XXZZ     -77.4787   XYZZ       0.3260   YYZZ     -31.6613
      XZZZ       7.0552   YZZZ      -2.4499   ZZZZ     -90.1248
 -----------------------------------------------------------------
 Calculating analytic gradient of the SCF energy
 Gradient of SCF Energy
            1           2           3           4           5           6
    1  -0.0009626   0.0004826   0.0005455  -0.0001038  -0.0001892   0.0001201
    2   0.0000624  -0.0002233   0.0000405   0.0014376  -0.0006168   0.0000088
    3   0.0003995  -0.0000831  -0.0003861  -0.0002201   0.0001277  -0.0000117
            7           8           9
    1  -0.0000069   0.0003449  -0.0002306
    2  -0.0000092  -0.0005097  -0.0001903
    3  -0.0000574  -0.0004701   0.0007013
 Max gradient component =       1.438E-03
 RMS gradient           =       4.548E-04
 Gradient time:  CPU 27.45 s  wall 1.19 s
 Geometry Optimization Parameters
   NAtoms,    NIC,     NZ,  NCons,   NDum,   NFix, NCnnct, MaxDiis
        9      61       0       0       0       0       0       0

 Cartesian Hessian Update
 Hessian Updated using BFGS Update
**WARNING** Hereditary positive definiteness endangered


** GEOMETRY OPTIMIZATION IN DELOCALIZED INTERNAL COORDINATES **
   Searching for a Minimum

   Optimization Cycle:   2

                       Coordinates (Angstroms)
     ATOM                X               Y               Z
      1  O         0.7972029089    0.7755533702   -0.2183334705
      2  C        -0.2370118541    0.0173489899    0.4865535587
      3  C         0.9663402153   -0.6233141929   -0.1071146678
      4  C        -1.6238311987   -0.0437773030   -0.0510793180
      5  H        -0.1011127960    0.1984556847    1.5621044929
      6  H         1.8150694872   -0.9330462054    0.5142573581
      7  H         0.8411742843   -1.1811584251   -1.0364895492
      8  H        -1.7129517833    0.6159694375   -0.9252968750
      9  H        -1.8670827753   -1.0705196298   -0.3713909142
   Point Group: c1    Number of degrees of freedom:    21


   Energy is   -192.422240758

 Hessian Updated using BFGS Update
**WARNING** Hereditary positive definiteness endangered

 21 Hessian modes will be used to form the next step
  Hessian Eigenvalues:
    -0.005969    0.021510    0.027618    0.032615    0.043343    0.052826
     0.096211    0.113226    0.122240    0.125558    0.155074    0.159944
     0.280605    0.299934    0.333818    0.336017    0.337801    0.338043
     0.340531    0.346771    0.389737
**WARNING** Hessian does not have the Desired Local Structure

 Minimum Search - Taking Simple RFO Step
 Searching for Lamda that Minimizes Along All modes
 Value Taken    Lamda =  -0.00625707
 Calculated Step too Large.  Step scaled by  0.064358
 Step Taken.  Stepsize is  0.300000

                             Maximum     Tolerance    Cnvgd?
         Gradient           0.000829      0.000300      NO
         Displacement       0.139034      0.001200      NO
         Energy change     -0.000086      0.000001      NO


 New Cartesian Coordinates Obtained by Inverse Iteration

 Displacement from previous Coordinates is:  0.274424
 ----------------------------------------------------------------
             Standard Nuclear Orientation (Angstroms)
    I     Atom           X                Y                Z
 ----------------------------------------------------------------
    1      O       0.8051370031     0.7649401145    -0.2430835860
    2      C      -0.2338189383     0.0231415079     0.4822399125
    3      C       0.9642089621    -0.6313281049    -0.0991162383
    4      C      -1.6225688114    -0.0676411352    -0.0467622955
    5      H      -0.0910134824     0.2293431599     1.5523100283
    6      H       1.8117230675    -0.9306193985     0.5277814804
    7      H       0.8330735488    -1.2122196173    -1.0131228692
    8      H      -1.7681247121     0.6556519957    -0.8606598549
    9      H      -1.8208201489    -1.0757567962    -0.4463759623
 ----------------------------------------------------------------
 Molecular Point Group                 C1    NOp =  1
 Largest Abelian Subgroup              C1    NOp =  1
 Nuclear Repulsion Energy =   116.1877232468 hartrees
 There are       16 alpha and       16 beta electrons
 Applying Cartesian multipole field
    Component          Value
    ---------          -----
     (2,0,0)        1.00000E-11
     (0,2,0)        2.00000E-11
     (0,0,2)       -3.00000E-11
 Nucleus-field energy     =     0.0000000014 hartrees
 Requested basis set is 6-311++G(d)
 There are 44 shells and 108 basis functions
 A cutoff of  1.0D-12 yielded    983 shell pairs
 There are      6009 function pairs (      6471 Cartesian)
 Smallest overlap matrix eigenvalue = 5.85E-05
 Guess MOs from SCF MO coefficient file
 Reading MOs from coefficient file
 Reading MOs from coefficient file

 -----------------------------------------------------------------------
  General SCF calculation program by
  Eric Jon Sundstrom, Paul Horn, Yuezhi Mao, Dmitri Zuev, Alec White,
  David Stuck, Shaama M.S., Shane Yost, Joonho Lee, David Small,
  Daniel Levine, Susi Lehtola, Hugh Burton, Evgeny Epifanovsky
 -----------------------------------------------------------------------
 Exchange:     0.2220 Hartree-Fock + 1.0000 wB97X-D + LR-HF
 Correlation:  1.0000 wB97X-D
 Using SG-2 standard quadrature grid
 Dispersion:   Grimme D
 using 32 threads for integral computing
 -------------------------------------------------------
 OpenMP Integral computing Module                
 Release: version 1.0, May 2013, Q-Chem Inc. Pittsburgh 
 -------------------------------------------------------
 using 32 threads for integral computing
 -------------------------------------------------------
 OpenMP Integral computing Module                
 Release: version 1.0, May 2013, Q-Chem Inc. Pittsburgh 
 -------------------------------------------------------
 -------------------------------------------------------
 OpenMP BLAS3 based DFT computing Module                
 Release: version 1.0, May 2013, Q-Chem Inc. Pittsburgh 
 -------------------------------------------------------
 A restricted SCF calculation will be
 performed using Roothaan-Hall, GDM
 SCF converges when RMS gradient is below 1.0e-08
 ---------------------------------------
  Cycle       Energy         DIIS error
 ---------------------------------------
    1    -192.4197782212      9.87e-04  Roothaan Step
 ---------------------------------------
  Cycle       Energy        RMS Gradient
 ---------------------------------------
    1    -192.4225439353      4.61e-03   Normal BFGS step
    2    -192.4228340519      2.52e-03   Normal BFGS step
    3    -192.4228936939      1.25e-03   Normal BFGS step
    4    -192.4229138899      5.47e-04   Normal BFGS step
    5    -192.4229173457      2.33e-04   Normal BFGS step
    6    -192.4229179632      1.58e-04   Normal BFGS step
    7    -192.4229181770      5.60e-05   Normal BFGS step
    8    -192.4229181997      2.44e-05   Normal BFGS step
    9    -192.4229182072      9.05e-06   Normal BFGS step
   10    -192.4229182085      5.96e-06   Normal BFGS step
   11    -192.4229182087      1.96e-06   Normal BFGS step
   12    -192.4229182087      8.20e-07   Normal BFGS step
   13    -192.4229182087      3.82e-07   Normal BFGS step
   14    -192.4229182087      9.62e-08   Normal BFGS step
   15    -192.4229182087      3.33e-08   Normal BFGS step
   16    -192.4229182087      1.37e-08   Normal BFGS step
   17    -192.4229182087      5.21e-09  Convergence criterion met
 ---------------------------------------
 SCF time:   CPU 281.88s  wall 10.00s 
 SCF   energy in the final basis set =     -192.4229182087
 
 --------------------------------------------------------------
 
                    Orbital Energies (a.u.)
 --------------------------------------------------------------
 
 Alpha MOs
 -- Occupied --
-19.073 -10.155 -10.144 -10.012  -0.986  -0.606  -0.567  -0.477
 -0.404  -0.355  -0.300  -0.257  -0.247  -0.187  -0.169  -0.023
 -- Virtual --
  0.154   0.174   0.184   0.200   0.205   0.235   0.261   0.275
  0.293   0.297   0.307   0.312   0.329   0.336   0.347   0.349
  0.368   0.381   0.411   0.424   0.435   0.467   0.483   0.485
  0.489   0.506   0.537   0.576   0.604   0.629   0.715   0.731
  0.780   0.803   0.830   0.846   0.850   0.906   0.916   0.939
  0.946   0.956   0.971   0.996   1.114   1.182   1.210   1.328
  1.357   1.445   1.526   1.602   1.660   1.707   1.783   1.809
  1.838   1.924   1.995   2.012   2.046   2.113   2.183   2.246
  2.385   2.423   2.711   2.722   2.815   2.855   2.917   3.018
  3.045   3.205   3.261   3.330   3.380   3.397   3.437   3.466
  3.545   3.852   3.949   4.134   4.537   5.331   5.619   5.773
 23.773  24.030  24.114  50.200
 --------------------------------------------------------------
 
          Ground-State Mulliken Net Atomic Charges

     Atom                 Charge (a.u.)
  ----------------------------------------
      1 O                    -0.163843
      2 C                    -0.002471
      3 C                    -0.414431
      4 C                    -1.005586
      5 H                     0.175497
      6 H                     0.114127
      7 H                     0.158189
      8 H                     0.076733
      9 H                     0.061783
  ----------------------------------------
  Sum of atomic charges =    -1.000000

 -----------------------------------------------------------------
                    Cartesian Multipole Moments
 -----------------------------------------------------------------
    Charge (ESU x 10^10)
                -4.8032
    Dipole Moment (Debye)
         X       5.9919      Y      -1.5692      Z      -0.3589
       Tot       6.2044
    Quadrupole Moments (Debye-Ang)
        XX     -49.0108     XY      -1.6164     YY     -31.5029
        XZ       4.0982     YZ       0.5343     ZZ     -31.8212
    Octopole Moments (Debye-Ang^2)
       XXX      63.5429    XXY      -1.9246    XYY       6.1163
       YYY       2.7586    XXZ     -11.0354    XYZ       1.0898
       YYZ      -0.9557    XZZ      11.3070    YZZ       1.6752
       ZZZ      -0.8350
    Hexadecapole Moments (Debye-Ang^3)
      XXXX    -438.3048   XXXY       6.4280   XXYY     -75.9029
      XYYY       1.9346   YYYY     -97.9787   XXXZ      36.2086
      XXYZ      -1.8367   XYYZ       3.5080   YYYZ      -0.6691
      XXZZ     -77.8186   XYZZ      -0.6518   YYZZ     -31.5345
      XZZZ       7.7251   YZZZ      -1.3294   ZZZZ     -90.6024
 -----------------------------------------------------------------
 Calculating analytic gradient of the SCF energy
 Gradient of SCF Energy
            1           2           3           4           5           6
    1  -0.0021357   0.0025830   0.0011089  -0.0013740  -0.0000529   0.0001058
    2  -0.0000916   0.0008405  -0.0002915   0.0026735  -0.0017519   0.0004120
    3   0.0015751  -0.0009179  -0.0006000  -0.0005024   0.0004761  -0.0001794
            7           8           9
    1  -0.0002008   0.0008270  -0.0008612
    2   0.0000213  -0.0012922  -0.0005200
    3   0.0001500  -0.0014312   0.0014296
 Max gradient component =       2.673E-03
 RMS gradient           =       1.175E-03
 Gradient time:  CPU 25.81 s  wall 1.17 s
 Geometry Optimization Parameters
   NAtoms,    NIC,     NZ,  NCons,   NDum,   NFix, NCnnct, MaxDiis
        9      61       0       0       0       0       0       0

 Cartesian Hessian Update
 Hessian Updated using BFGS Update
**WARNING** Hereditary positive definiteness endangered


** GEOMETRY OPTIMIZATION IN DELOCALIZED INTERNAL COORDINATES **
   Searching for a Minimum

   Optimization Cycle:   3

                       Coordinates (Angstroms)
     ATOM                X               Y               Z
      1  O         0.8051370031    0.7649401145   -0.2430835860
      2  C        -0.2338189383    0.0231415079    0.4822399125
      3  C         0.9642089621   -0.6313281049   -0.0991162383
      4  C        -1.6225688114   -0.0676411352   -0.0467622955
      5  H        -0.0910134824    0.2293431599    1.5523100283
      6  H         1.8117230675   -0.9306193985    0.5277814804
      7  H         0.8330735488   -1.2122196173   -1.0131228692
      8  H        -1.7681247121    0.6556519957   -0.8606598549
      9  H        -1.8208201489   -1.0757567962   -0.4463759623
   Point Group: c1    Number of degrees of freedom:    21


   Energy is   -192.422918209

 Hessian Updated using BFGS Update
**WARNING** Hereditary positive definiteness endangered

 21 Hessian modes will be used to form the next step
  Hessian Eigenvalues:
    -0.006336    0.021222    0.027613    0.032598    0.043335    0.052724
     0.096150    0.113067    0.122168    0.125510    0.155051    0.159086
     0.278332    0.299889    0.332051    0.333823    0.337797    0.338042
     0.340461    0.346732    0.389178
**WARNING** Hessian does not have the Desired Local Structure

 Minimum Search - Taking Simple RFO Step
 Searching for Lamda that Minimizes Along All modes
 Value Taken    Lamda =  -0.00770475
 Calculated Step too Large.  Step scaled by  0.126680
 Step Taken.  Stepsize is  0.300000

                             Maximum     Tolerance    Cnvgd?
         Gradient           0.002088      0.000300      NO
         Displacement       0.139452      0.001200      NO
         Energy change     -0.000677      0.000001      NO


 New Cartesian Coordinates Obtained by Inverse Iteration

 Displacement from previous Coordinates is:  0.274938
 ----------------------------------------------------------------
             Standard Nuclear Orientation (Angstroms)
    I     Atom           X                Y                Z
 ----------------------------------------------------------------
    1      O       0.8134755626     0.7535867247    -0.2685194870
    2      C      -0.2316808475     0.0264482914     0.4770265472
    3      C       0.9620352808    -0.6392041022    -0.0919263662
    4      C      -1.6189300825    -0.0907617525    -0.0437205994
    5      H      -0.0843778702     0.2624300372     1.5400184520
    6      H       1.8063066470    -0.9304286081     0.5425744269
    7      H       0.8281880460    -1.2413846273    -0.9916889498
    8      H      -1.8243131794     0.6873945367    -0.7908108064
    9      H      -1.7729070685    -1.0725687738    -0.5197426023
 ----------------------------------------------------------------
 Molecular Point Group                 C1    NOp =  1
 Largest Abelian Subgroup              C1    NOp =  1
 Nuclear Repulsion Energy =   116.1567177993 hartrees
 There are       16 alpha and       16 beta electrons
 Applying Cartesian multipole field
    Component          Value
    ---------          -----
     (2,0,0)        1.00000E-11
     (0,2,0)        2.00000E-11
     (0,0,2)       -3.00000E-11
 Nucleus-field energy     =     0.0000000014 hartrees
 Requested basis set is 6-311++G(d)
 There are 44 shells and 108 basis functions
 A cutoff of  1.0D-12 yielded    983 shell pairs
 There are      6009 function pairs (      6471 Cartesian)
 Smallest overlap matrix eigenvalue = 5.48E-05
 Guess MOs from SCF MO coefficient file
 Reading MOs from coefficient file
 Reading MOs from coefficient file

 -----------------------------------------------------------------------
  General SCF calculation program by
  Eric Jon Sundstrom, Paul Horn, Yuezhi Mao, Dmitri Zuev, Alec White,
  David Stuck, Shaama M.S., Shane Yost, Joonho Lee, David Small,
  Daniel Levine, Susi Lehtola, Hugh Burton, Evgeny Epifanovsky
 -----------------------------------------------------------------------
 Exchange:     0.2220 Hartree-Fock + 1.0000 wB97X-D + LR-HF
 Correlation:  1.0000 wB97X-D
 Using SG-2 standard quadrature grid
 Dispersion:   Grimme D
 using 32 threads for integral computing
 -------------------------------------------------------
 OpenMP Integral computing Module                
 Release: version 1.0, May 2013, Q-Chem Inc. Pittsburgh 
 -------------------------------------------------------
 using 32 threads for integral computing
 -------------------------------------------------------
 OpenMP Integral computing Module                
 Release: version 1.0, May 2013, Q-Chem Inc. Pittsburgh 
 -------------------------------------------------------
 -------------------------------------------------------
 OpenMP BLAS3 based DFT computing Module                
 Release: version 1.0, May 2013, Q-Chem Inc. Pittsburgh 
 -------------------------------------------------------
 A restricted SCF calculation will be
 performed using Roothaan-Hall, GDM
 SCF converges when RMS gradient is below 1.0e-08
 ---------------------------------------
  Cycle       Energy         DIIS error
 ---------------------------------------
    1    -192.4210400949      9.84e-04  Roothaan Step
 ---------------------------------------
  Cycle       Energy        RMS Gradient
 ---------------------------------------
    1    -192.4237808409      4.35e-03   Normal BFGS step
    2    -192.4240658591      2.20e-03   Normal BFGS step
    3    -192.4241187096      1.50e-03   Normal BFGS step
    4    -192.4241446344      4.48e-04   Normal BFGS step
    5    -192.4241473695      2.27e-04   Normal BFGS step
    6    -192.4241480266      1.45e-04   Normal BFGS step
    7    -192.4241481912      4.70e-05   Normal BFGS step
    8    -192.4241482094      1.83e-05   Normal BFGS step
    9    -192.4241482145      7.18e-06   Normal BFGS step
   10    -192.4241482153      5.01e-06   Normal BFGS step
   11    -192.4241482154      1.86e-06   Normal BFGS step
   12    -192.4241482154      6.55e-07   Normal BFGS step
   13    -192.4241482155      3.57e-07   Normal BFGS step
   14    -192.4241482155      9.13e-08   Normal BFGS step
   15    -192.4241482155      3.11e-08   Normal BFGS step
   16    -192.4241482155      1.00e-08   Normal BFGS step
   17    -192.4241482155      3.34e-09  Convergence criterion met
 ---------------------------------------
 SCF time:   CPU 286.51s  wall 10.00s 
 SCF   energy in the final basis set =     -192.4241482155
 
 --------------------------------------------------------------
 
                    Orbital Energies (a.u.)
 --------------------------------------------------------------
 
 Alpha MOs
 -- Occupied --
-19.070 -10.155 -10.143 -10.013  -0.983  -0.607  -0.566  -0.477
 -0.403  -0.354  -0.297  -0.259  -0.248  -0.185  -0.167  -0.024
 -- Virtual --
  0.155   0.175   0.184   0.200   0.206   0.235   0.262   0.275
  0.293   0.297   0.307   0.312   0.328   0.337   0.347   0.354
  0.369   0.383   0.411   0.423   0.434   0.468   0.483   0.485
  0.493   0.502   0.539   0.575   0.607   0.629   0.712   0.730
  0.784   0.807   0.831   0.847   0.851   0.902   0.917   0.934
  0.944   0.957   0.973   0.994   1.116   1.176   1.211   1.331
  1.359   1.447   1.528   1.600   1.666   1.707   1.776   1.808
  1.849   1.920   2.002   2.007   2.048   2.118   2.185   2.250
  2.387   2.423   2.711   2.721   2.815   2.858   2.916   3.020
  3.046   3.199   3.261   3.329   3.382   3.403   3.441   3.464
  3.542   3.853   3.951   4.139   4.536   5.334   5.616   5.772
 23.772  24.033  24.120  50.203
 --------------------------------------------------------------
 
          Ground-State Mulliken Net Atomic Charges

     Atom                 Charge (a.u.)
  ----------------------------------------
      1 O                    -0.157915
      2 C                    -0.003965
      3 C                    -0.418048
      4 C                    -1.013223
      5 H                     0.174682
      6 H                     0.118005
      7 H                     0.156552
      8 H                     0.079897
      9 H                     0.064015
  ----------------------------------------
  Sum of atomic charges =    -1.000000

 -----------------------------------------------------------------
                    Cartesian Multipole Moments
 -----------------------------------------------------------------
    Charge (ESU x 10^10)
                -4.8032
    Dipole Moment (Debye)
         X       5.8839      Y      -1.3020      Z      -0.3693
       Tot       6.0375
    Quadrupole Moments (Debye-Ang)
        XX     -48.6508     XY      -2.5243     YY     -31.3480
        XZ       4.3083     YZ       0.9776     ZZ     -31.9821
    Octopole Moments (Debye-Ang^2)
       XXX      62.0938    XXY       0.4528    XYY       5.8119
       YYY       4.1297    XXZ     -11.1803    XYZ       0.4796
       YYZ      -1.0804    XZZ      11.3956    YZZ       2.0042
       ZZZ      -0.6758
    Hexadecapole Moments (Debye-Ang^3)
      XXXX    -432.0631   XXXY      -1.0116   XXYY     -75.2322
      XYYY      -0.7635   YYYY     -97.8675   XXXZ      37.0991
      XXYZ      -0.2558   XYYZ       3.9380   YYYZ       0.4901
      XXZZ     -77.6335   XYZZ      -1.5683   YYZZ     -31.4634
      XZZZ       8.2450   YZZZ      -0.0369   ZZZZ     -90.6480
 -----------------------------------------------------------------
 Calculating analytic gradient of the SCF energy
 Gradient of SCF Energy
            1           2           3           4           5           6
    1  -0.0037910   0.0044636   0.0015911  -0.0022703   0.0000132   0.0000656
    2  -0.0002519   0.0009035  -0.0006018   0.0042250  -0.0023943   0.0006466
    3   0.0026925  -0.0016412  -0.0010254  -0.0007631   0.0007411  -0.0001539
            7           8           9
    1  -0.0002597   0.0011697  -0.0009822
    2   0.0001440  -0.0017794  -0.0008918
    3   0.0001579  -0.0022630   0.0022551
 Max gradient component =       4.464E-03
 RMS gradient           =       1.886E-03
 Gradient time:  CPU 28.07 s  wall 1.23 s
 Geometry Optimization Parameters
   NAtoms,    NIC,     NZ,  NCons,   NDum,   NFix, NCnnct, MaxDiis
        9      61       0       0       0       0       0       0

 Cartesian Hessian Update
 Hessian Updated using BFGS Update
**WARNING** Hereditary positive definiteness endangered


** GEOMETRY OPTIMIZATION IN DELOCALIZED INTERNAL COORDINATES **
   Searching for a Minimum

   Optimization Cycle:   4

                       Coordinates (Angstroms)
     ATOM                X               Y               Z
      1  O         0.8134755626    0.7535867247   -0.2685194870
      2  C        -0.2316808475    0.0264482914    0.4770265472
      3  C         0.9620352808   -0.6392041022   -0.0919263662
      4  C        -1.6189300825   -0.0907617525   -0.0437205994
      5  H        -0.0843778702    0.2624300372    1.5400184520
      6  H         1.8063066470   -0.9304286081    0.5425744269
      7  H         0.8281880460   -1.2413846273   -0.9916889498
      8  H        -1.8243131794    0.6873945367   -0.7908108064
      9  H        -1.7729070685   -1.0725687738   -0.5197426023
   Point Group: c1    Number of degrees of freedom:    21


   Energy is   -192.424148215

 Hessian Updated using BFGS Update
**WARNING** Hereditary positive definiteness endangered

 21 Hessian modes will be used to form the next step
  Hessian Eigenvalues:
    -0.005572    0.021208    0.027611    0.032588    0.043323    0.052702
     0.096152    0.113006    0.121992    0.125509    0.155037    0.159030
     0.274316    0.299755    0.331459    0.333735    0.337797    0.338035
     0.340452    0.346727    0.388495
**WARNING** Hessian does not have the Desired Local Structure

 Minimum Search - Taking Simple RFO Step
 Searching for Lamda that Minimizes Along All modes
 Value Taken    Lamda =  -0.00849664
 Calculated Step too Large.  Step scaled by  0.176637
 Step Taken.  Stepsize is  0.300000

                             Maximum     Tolerance    Cnvgd?
         Gradient           0.003239      0.000300      NO
         Displacement       0.142744      0.001200      NO
         Energy change     -0.001230      0.000001      NO


 New Cartesian Coordinates Obtained by Inverse Iteration

 Displacement from previous Coordinates is:  0.274314
 ----------------------------------------------------------------
             Standard Nuclear Orientation (Angstroms)
    I     Atom           X                Y                Z
 ----------------------------------------------------------------
    1      O       0.8260103226     0.7427385199    -0.2945474824
    2      C      -0.2299777815     0.0301027442     0.4705083121
    3      C       0.9597995047    -0.6458395964    -0.0847869423
    4      C      -1.6132813734    -0.1137489927    -0.0424350672
    5      H      -0.0800905155     0.2943538945     1.5259683175
    6      H       1.7998742311    -0.9308371557     0.5577895208
    7      H       0.8237703710    -1.2693375645    -0.9698030808
    8      H      -1.8810690316     0.7096691637    -0.7171770512
    9      H      -1.7272392390    -1.0615892867    -0.5923059115
 ----------------------------------------------------------------
 Molecular Point Group                 C1    NOp =  1
 Largest Abelian Subgroup              C1    NOp =  1
 Nuclear Repulsion Energy =   116.1011575673 hartrees
 There are       16 alpha and       16 beta electrons
 Applying Cartesian multipole field
    Component          Value
    ---------          -----
     (2,0,0)        1.00000E-11
     (0,2,0)        2.00000E-11
     (0,0,2)       -3.00000E-11
 Nucleus-field energy     =     0.0000000014 hartrees
 Requested basis set is 6-311++G(d)
 There are 44 shells and 108 basis functions
 A cutoff of  1.0D-12 yielded    982 shell pairs
 There are      6008 function pairs (      6470 Cartesian)
 Smallest overlap matrix eigenvalue = 5.08E-05
 Guess MOs from SCF MO coefficient file
 Reading MOs from coefficient file
 Reading MOs from coefficient file

 -----------------------------------------------------------------------
  General SCF calculation program by
  Eric Jon Sundstrom, Paul Horn, Yuezhi Mao, Dmitri Zuev, Alec White,
  David Stuck, Shaama M.S., Shane Yost, Joonho Lee, David Small,
  Daniel Levine, Susi Lehtola, Hugh Burton, Evgeny Epifanovsky
 -----------------------------------------------------------------------
 Exchange:     0.2220 Hartree-Fock + 1.0000 wB97X-D + LR-HF
 Correlation:  1.0000 wB97X-D
 Using SG-2 standard quadrature grid
 Dispersion:   Grimme D
 using 32 threads for integral computing
 -------------------------------------------------------
 OpenMP Integral computing Module                
 Release: version 1.0, May 2013, Q-Chem Inc. Pittsburgh 
 -------------------------------------------------------
 using 32 threads for integral computing
 -------------------------------------------------------
 OpenMP Integral computing Module                
 Release: version 1.0, May 2013, Q-Chem Inc. Pittsburgh 
 -------------------------------------------------------
 -------------------------------------------------------
 OpenMP BLAS3 based DFT computing Module                
 Release: version 1.0, May 2013, Q-Chem Inc. Pittsburgh 
 -------------------------------------------------------
 A restricted SCF calculation will be
 performed using Roothaan-Hall, GDM
 SCF converges when RMS gradient is below 1.0e-08
 ---------------------------------------
  Cycle       Energy         DIIS error
 ---------------------------------------
    1    -192.4227440496      9.93e-04  Roothaan Step
 ---------------------------------------
  Cycle       Energy        RMS Gradient
 ---------------------------------------
    1    -192.4255137051      4.65e-03   Normal BFGS step
    2    -192.4257975956      2.03e-03   Normal BFGS step
    3    -192.4258472094      1.51e-03   Normal BFGS step
    4    -192.4258735367      4.03e-04   Normal BFGS step
    5    -192.4258762849      2.32e-04   Normal BFGS step
    6    -192.4258768497      1.32e-04   Normal BFGS step
    7    -192.4258770063      4.01e-05   Normal BFGS step
    8    -192.4258770215      1.61e-05   Normal BFGS step
    9    -192.4258770254      5.45e-06   Normal BFGS step
   10    -192.4258770260      3.57e-06   Normal BFGS step
   11    -192.4258770261      1.57e-06   Normal BFGS step
   12    -192.4258770261      5.70e-07   Normal BFGS step
   13    -192.4258770261      2.85e-07   Normal BFGS step
   14    -192.4258770261      8.88e-08   Normal BFGS step
   15    -192.4258770261      3.18e-08   Normal BFGS step
   16    -192.4258770261      7.33e-09  Convergence criterion met
 ---------------------------------------
 SCF time:   CPU 269.50s  wall 10.00s 
 SCF   energy in the final basis set =     -192.4258770261
 
 --------------------------------------------------------------
 
                    Orbital Energies (a.u.)
 --------------------------------------------------------------
 
 Alpha MOs
 -- Occupied --
-19.066 -10.154 -10.141 -10.013  -0.978  -0.608  -0.564  -0.476
 -0.401  -0.353  -0.293  -0.261  -0.248  -0.183  -0.166  -0.026
 -- Virtual --
  0.155   0.175   0.184   0.200   0.207   0.235   0.263   0.276
  0.294   0.297   0.307   0.313   0.326   0.339   0.347   0.358
  0.369   0.384   0.410   0.422   0.434   0.469   0.480   0.485
  0.495   0.499   0.542   0.574   0.611   0.628   0.710   0.729
  0.787   0.812   0.833   0.848   0.855   0.899   0.918   0.928
  0.942   0.959   0.974   0.993   1.119   1.171   1.214   1.336
  1.362   1.449   1.530   1.599   1.673   1.709   1.768   1.806
  1.860   1.917   2.002   2.009   2.052   2.123   2.187   2.254
  2.390   2.424   2.711   2.720   2.816   2.858   2.917   3.023
  3.046   3.193   3.262   3.328   3.384   3.408   3.444   3.462
  3.541   3.853   3.953   4.144   4.533   5.339   5.611   5.771
 23.771  24.039  24.129  50.207
 --------------------------------------------------------------
 
          Ground-State Mulliken Net Atomic Charges

     Atom                 Charge (a.u.)
  ----------------------------------------
      1 O                    -0.154319
      2 C                    -0.008666
      3 C                    -0.417341
      4 C                    -1.017326
      5 H                     0.173021
      6 H                     0.119197
      7 H                     0.155755
      8 H                     0.083276
      9 H                     0.066403
  ----------------------------------------
  Sum of atomic charges =    -1.000000

 -----------------------------------------------------------------
                    Cartesian Multipole Moments
 -----------------------------------------------------------------
    Charge (ESU x 10^10)
                -4.8032
    Dipole Moment (Debye)
         X       5.6932      Y      -1.0498      Z      -0.3421
       Tot       5.7993
    Quadrupole Moments (Debye-Ang)
        XX     -48.0963     XY      -3.3894     YY     -31.3265
        XZ       4.4222     YZ       1.4359     ZZ     -32.0662
    Octopole Moments (Debye-Ang^2)
       XXX      59.5199    XXY       2.7051    XYY       5.5815
       YYY       5.4671    XXZ     -10.9274    XYZ      -0.1302
       YYZ      -1.1518    XZZ      11.2509    YZZ       2.2974
       ZZZ      -0.3775
    Hexadecapole Moments (Debye-Ang^3)
      XXXX    -422.5578   XXXY      -8.0261   XXYY     -74.8565
      XYYY      -3.3908   YYYY     -98.4120   XXXZ      36.9159
      XXYZ       1.3547   XYYZ       4.2962   YYYZ       1.6488
      XXZZ     -76.9896   XYZZ      -2.4038   YYZZ     -31.4679
      XZZZ       8.5594   YZZZ       1.2961   ZZZZ     -90.2546
 -----------------------------------------------------------------
 Calculating analytic gradient of the SCF energy
 Gradient of SCF Energy
            1           2           3           4           5           6
    1  -0.0049078   0.0061546   0.0016822  -0.0033537   0.0001649   0.0000202
    2  -0.0003998   0.0013138  -0.0007843   0.0054167  -0.0031527   0.0009323
    3   0.0035778  -0.0024510  -0.0013114  -0.0005752   0.0010946  -0.0001680
            7           8           9
    1  -0.0003293   0.0016447  -0.0010757
    2   0.0002613  -0.0021328  -0.0014545
    3   0.0002105  -0.0031636   0.0027863
 Max gradient component =       6.155E-03
 RMS gradient           =       2.504E-03
 Gradient time:  CPU 28.01 s  wall 1.22 s
 Geometry Optimization Parameters
   NAtoms,    NIC,     NZ,  NCons,   NDum,   NFix, NCnnct, MaxDiis
        9      61       0       0       0       0       0       0

 Cartesian Hessian Update
 Hessian Updated using BFGS Update
**WARNING** Hereditary positive definiteness endangered


** GEOMETRY OPTIMIZATION IN DELOCALIZED INTERNAL COORDINATES **
   Searching for a Minimum

   Optimization Cycle:   5

                       Coordinates (Angstroms)
     ATOM                X               Y               Z
      1  O         0.8260103226    0.7427385199   -0.2945474824
      2  C        -0.2299777815    0.0301027442    0.4705083121
      3  C         0.9597995047   -0.6458395964   -0.0847869423
      4  C        -1.6132813734   -0.1137489927   -0.0424350672
      5  H        -0.0800905155    0.2943538945    1.5259683175
      6  H         1.7998742311   -0.9308371557    0.5577895208
      7  H         0.8237703710   -1.2693375645   -0.9698030808
      8  H        -1.8810690316    0.7096691637   -0.7171770512
      9  H        -1.7272392390   -1.0615892867   -0.5923059115
   Point Group: c1    Number of degrees of freedom:    21


   Energy is   -192.425877026

 Hessian Updated using BFGS Update
**WARNING** Hereditary positive definiteness endangered

 21 Hessian modes will be used to form the next step
  Hessian Eigenvalues:
    -0.005048    0.021174    0.027586    0.032577    0.043254    0.052687
     0.096152    0.112991    0.121936    0.125431    0.155010    0.159048
     0.273226    0.299500    0.330901    0.333735    0.337791    0.338002
     0.340438    0.346715    0.387820
**WARNING** Hessian does not have the Desired Local Structure

 Minimum Search - Taking Simple RFO Step
 Searching for Lamda that Minimizes Along All modes
 Value Taken    Lamda =  -0.00959716
 Calculated Step too Large.  Step scaled by  0.207561
 Step Taken.  Stepsize is  0.300000

                             Maximum     Tolerance    Cnvgd?
         Gradient           0.004190      0.000300      NO
         Displacement       0.144788      0.001200      NO
         Energy change     -0.001729      0.000001      NO


 New Cartesian Coordinates Obtained by Inverse Iteration

 Displacement from previous Coordinates is:  0.274322
 ----------------------------------------------------------------
             Standard Nuclear Orientation (Angstroms)
    I     Atom           X                Y                Z
 ----------------------------------------------------------------
    1      O       0.8413057257     0.7317139929    -0.3211395880
    2      C      -0.2289255699     0.0323182420     0.4627525250
    3      C       0.9585127968    -0.6518251837    -0.0778828586
    4      C      -1.6057673422    -0.1356654753    -0.0430449566
    5      H      -0.0792138719     0.3263329320     1.5095407306
    6      H       1.7934227922    -0.9318493233     0.5737459094
    7      H       0.8221127095    -1.2963954257    -0.9481461514
    8      H      -1.9380744348     0.7235067689    -0.6396917702
    9      H      -1.6855763171    -1.0426248018    -0.6629232251
 ----------------------------------------------------------------
 Molecular Point Group                 C1    NOp =  1
 Largest Abelian Subgroup              C1    NOp =  1
 Nuclear Repulsion Energy =   116.0212734840 hartrees
 There are       16 alpha and       16 beta electrons
 Applying Cartesian multipole field
    Component          Value
    ---------          -----
     (2,0,0)        1.00000E-11
     (0,2,0)        2.00000E-11
     (0,0,2)       -3.00000E-11
 Nucleus-field energy     =     0.0000000014 hartrees
 Requested basis set is 6-311++G(d)
 There are 44 shells and 108 basis functions
 A cutoff of  1.0D-12 yielded    983 shell pairs
 There are      6012 function pairs (      6474 Cartesian)
 Smallest overlap matrix eigenvalue = 4.76E-05
 Guess MOs from SCF MO coefficient file
 Reading MOs from coefficient file
 Reading MOs from coefficient file

 -----------------------------------------------------------------------
  General SCF calculation program by
  Eric Jon Sundstrom, Paul Horn, Yuezhi Mao, Dmitri Zuev, Alec White,
  David Stuck, Shaama M.S., Shane Yost, Joonho Lee, David Small,
  Daniel Levine, Susi Lehtola, Hugh Burton, Evgeny Epifanovsky
 -----------------------------------------------------------------------
 Exchange:     0.2220 Hartree-Fock + 1.0000 wB97X-D + LR-HF
 Correlation:  1.0000 wB97X-D
 Using SG-2 standard quadrature grid
 Dispersion:   Grimme D
 using 32 threads for integral computing
 -------------------------------------------------------
 OpenMP Integral computing Module                
 Release: version 1.0, May 2013, Q-Chem Inc. Pittsburgh 
 -------------------------------------------------------
 using 32 threads for integral computing
 -------------------------------------------------------
 OpenMP Integral computing Module                
 Release: version 1.0, May 2013, Q-Chem Inc. Pittsburgh 
 -------------------------------------------------------
 -------------------------------------------------------
 OpenMP BLAS3 based DFT computing Module                
 Release: version 1.0, May 2013, Q-Chem Inc. Pittsburgh 
 -------------------------------------------------------
 A restricted SCF calculation will be
 performed using Roothaan-Hall, GDM
 SCF converges when RMS gradient is below 1.0e-08
 ---------------------------------------
  Cycle       Energy         DIIS error
 ---------------------------------------
    1    -192.4249683163      9.95e-04  Roothaan Step
 ---------------------------------------
  Cycle       Energy        RMS Gradient
 ---------------------------------------
    1    -192.4277169551      5.21e-03   Normal BFGS step
    2    -192.4279903265      2.05e-03   Normal BFGS step
    3    -192.4280315233      1.53e-03   Normal BFGS step
    4    -192.4280620952      3.39e-04   Normal BFGS step
    5    -192.4280639449      2.65e-04   Normal BFGS step
    6    -192.4280646048      1.03e-04   Normal BFGS step
    7    -192.4280647096      3.13e-05   Normal BFGS step
    8    -192.4280647223      1.39e-05   Normal BFGS step
    9    -192.4280647250      4.29e-06   Normal BFGS step
   10    -192.4280647253      2.09e-06   Normal BFGS step
   11    -192.4280647254      8.52e-07   Normal BFGS step
   12    -192.4280647254      3.85e-07   Normal BFGS step
   13    -192.4280647254      1.82e-07   Normal BFGS step
   14    -192.4280647254      6.77e-08   Normal BFGS step
   15    -192.4280647254      2.61e-08   Normal BFGS step
   16    -192.4280647254      6.70e-09  Convergence criterion met
 ---------------------------------------
 SCF time:   CPU 269.77s  wall 10.00s 
 SCF   energy in the final basis set =     -192.4280647254
 
 --------------------------------------------------------------
 
                    Orbital Energies (a.u.)
 --------------------------------------------------------------
 
 Alpha MOs
 -- Occupied --
-19.061 -10.153 -10.139 -10.014  -0.972  -0.610  -0.562  -0.475
 -0.400  -0.351  -0.288  -0.264  -0.247  -0.180  -0.164  -0.028
 -- Virtual --
  0.156   0.176   0.183   0.200   0.207   0.235   0.264   0.277
  0.295   0.296   0.307   0.314   0.325   0.340   0.347   0.362
  0.369   0.386   0.409   0.421   0.434   0.469   0.479   0.486
  0.490   0.501   0.545   0.575   0.615   0.628   0.708   0.729
  0.791   0.816   0.836   0.850   0.859   0.896   0.917   0.924
  0.940   0.960   0.974   0.993   1.120   1.167   1.218   1.341
  1.366   1.453   1.533   1.597   1.680   1.711   1.759   1.803
  1.869   1.916   1.997   2.016   2.057   2.129   2.190   2.258
  2.394   2.425   2.710   2.720   2.816   2.856   2.919   3.026
  3.046   3.187   3.262   3.327   3.387   3.413   3.446   3.460
  3.542   3.855   3.953   4.150   4.529   5.344   5.604   5.770
 23.769  24.045  24.141  50.212
 --------------------------------------------------------------
 
          Ground-State Mulliken Net Atomic Charges

     Atom                 Charge (a.u.)
  ----------------------------------------
      1 O                    -0.154110
      2 C                    -0.011699
      3 C                    -0.414906
      4 C                    -1.020154
      5 H                     0.171206
      6 H                     0.118144
      7 H                     0.155871
      8 H                     0.087130
      9 H                     0.068518
  ----------------------------------------
  Sum of atomic charges =    -1.000000

 -----------------------------------------------------------------
                    Cartesian Multipole Moments
 -----------------------------------------------------------------
    Charge (ESU x 10^10)
                -4.8032
    Dipole Moment (Debye)
         X       5.4256      Y      -0.8228      Z      -0.2751
       Tot       5.4945
    Quadrupole Moments (Debye-Ang)
        XX     -47.3775     XY      -4.1668     YY     -31.4244
        XZ       4.4430     YZ       1.8844     ZZ     -32.0814
    Octopole Moments (Debye-Ang^2)
       XXX      55.9874    XXY       4.7139    XYY       5.4246
       YYY       6.7711    XXZ     -10.3034    XYZ      -0.6827
       YYZ      -1.1554    XZZ      10.8824    YZZ       2.5556
       ZZZ       0.0724
    Hexadecapole Moments (Debye-Ang^3)
      XXXX    -410.6067   XXXY     -14.1343   XXYY     -74.7664
      XYYY      -5.7321   YYYY     -99.5306   XXXZ      35.7955
      XXYZ       2.8745   XYYZ       4.5741   YYYZ       2.7402
      XXZZ     -75.9777   XYZZ      -3.0804   YYZZ     -31.5253
      XZZZ       8.6913   YZZZ       2.5953   ZZZZ     -89.5203
 -----------------------------------------------------------------
 Calculating analytic gradient of the SCF energy
 Gradient of SCF Energy
            1           2           3           4           5           6
    1  -0.0059351   0.0076554   0.0016523  -0.0044128   0.0002681   0.0000092
    2  -0.0005461   0.0016903  -0.0010394   0.0063057  -0.0037183   0.0011579
    3   0.0043324  -0.0032762  -0.0015461   0.0000934   0.0014067  -0.0001703
            7           8           9
    1  -0.0003784   0.0020425  -0.0009011
    2   0.0003569  -0.0022188  -0.0019881
    3   0.0002302  -0.0041406   0.0030705
 Max gradient component =       7.655E-03
 RMS gradient           =       3.043E-03
 Gradient time:  CPU 28.18 s  wall 1.25 s
 Geometry Optimization Parameters
   NAtoms,    NIC,     NZ,  NCons,   NDum,   NFix, NCnnct, MaxDiis
        9      61       0       0       0       0       0       0

 Cartesian Hessian Update
 Hessian Updated using BFGS Update
**WARNING** Hereditary positive definiteness endangered


** GEOMETRY OPTIMIZATION IN DELOCALIZED INTERNAL COORDINATES **
   Searching for a Minimum

   Optimization Cycle:   6

                       Coordinates (Angstroms)
     ATOM                X               Y               Z
      1  O         0.8413057257    0.7317139929   -0.3211395880
      2  C        -0.2289255699    0.0323182420    0.4627525250
      3  C         0.9585127968   -0.6518251837   -0.0778828586
      4  C        -1.6057673422   -0.1356654753   -0.0430449566
      5  H        -0.0792138719    0.3263329320    1.5095407306
      6  H         1.7934227922   -0.9318493233    0.5737459094
      7  H         0.8221127095   -1.2963954257   -0.9481461514
      8  H        -1.9380744348    0.7235067689   -0.6396917702
      9  H        -1.6855763171   -1.0426248018   -0.6629232251
   Point Group: c1    Number of degrees of freedom:    21


   Energy is   -192.428064725

 Hessian Updated using BFGS Update
**WARNING** Hereditary positive definiteness endangered

 21 Hessian modes will be used to form the next step
  Hessian Eigenvalues:
    -0.004165    0.021162    0.027556    0.032560    0.042991    0.052646
     0.096143    0.113003    0.121923    0.125362    0.154934    0.158764
     0.272957    0.299228    0.331136    0.333735    0.337790    0.337995
     0.340431    0.346712    0.387351
**WARNING** Hessian does not have the Desired Local Structure

 Minimum Search - Taking Simple RFO Step
 Searching for Lamda that Minimizes Along All modes
 Value Taken    Lamda =  -0.01034964
 Calculated Step too Large.  Step scaled by  0.233298
 Step Taken.  Stepsize is  0.300000

                             Maximum     Tolerance    Cnvgd?
         Gradient           0.005021      0.000300      NO
         Displacement       0.147131      0.001200      NO
         Energy change     -0.002188      0.000001      NO


 New Cartesian Coordinates Obtained by Inverse Iteration

 Displacement from previous Coordinates is:  0.274207
 ----------------------------------------------------------------
             Standard Nuclear Orientation (Angstroms)
    I     Atom           X                Y                Z
 ----------------------------------------------------------------
    1      O       0.8602750539     0.7206903319    -0.3484576755
    2      C      -0.2283151955     0.0332136742     0.4532893111
    3      C       0.9587753352    -0.6568627613    -0.0711360989
    4      C      -1.5965313306    -0.1561009319    -0.0462108985
    5      H      -0.0815884498     0.3574662408     1.4904693136
    6      H       1.7871362662    -0.9328003547     0.5910837915
    7      H       0.8241354110    -1.3225910780    -0.9264154846
    8      H      -1.9945678457     0.7291793051    -0.5583665406
    9      H      -1.6515227564    -1.0166827000    -0.7310451029
 ----------------------------------------------------------------
 Molecular Point Group                 C1    NOp =  1
 Largest Abelian Subgroup              C1    NOp =  1
 Nuclear Repulsion Energy =   115.9026422504 hartrees
 There are       16 alpha and       16 beta electrons
 Applying Cartesian multipole field
    Component          Value
    ---------          -----
     (2,0,0)        1.00000E-11
     (0,2,0)        2.00000E-11
     (0,0,2)       -3.00000E-11
 Nucleus-field energy     =     0.0000000014 hartrees
 Requested basis set is 6-311++G(d)
 There are 44 shells and 108 basis functions
 A cutoff of  1.0D-12 yielded    983 shell pairs
 There are      6012 function pairs (      6474 Cartesian)
 Smallest overlap matrix eigenvalue = 4.55E-05
 Guess MOs from SCF MO coefficient file
 Reading MOs from coefficient file
 Reading MOs from coefficient file

 -----------------------------------------------------------------------
  General SCF calculation program by
  Eric Jon Sundstrom, Paul Horn, Yuezhi Mao, Dmitri Zuev, Alec White,
  David Stuck, Shaama M.S., Shane Yost, Joonho Lee, David Small,
  Daniel Levine, Susi Lehtola, Hugh Burton, Evgeny Epifanovsky
 -----------------------------------------------------------------------
 Exchange:     0.2220 Hartree-Fock + 1.0000 wB97X-D + LR-HF
 Correlation:  1.0000 wB97X-D
 Using SG-2 standard quadrature grid
 Dispersion:   Grimme D
 using 32 threads for integral computing
 -------------------------------------------------------
 OpenMP Integral computing Module                
 Release: version 1.0, May 2013, Q-Chem Inc. Pittsburgh 
 -------------------------------------------------------
 using 32 threads for integral computing
 -------------------------------------------------------
 OpenMP Integral computing Module                
 Release: version 1.0, May 2013, Q-Chem Inc. Pittsburgh 
 -------------------------------------------------------
 -------------------------------------------------------
 OpenMP BLAS3 based DFT computing Module                
 Release: version 1.0, May 2013, Q-Chem Inc. Pittsburgh 
 -------------------------------------------------------
 A restricted SCF calculation will be
 performed using Roothaan-Hall, GDM
 SCF converges when RMS gradient is below 1.0e-08
 ---------------------------------------
  Cycle       Energy         DIIS error
 ---------------------------------------
    1    -192.4275316123      1.00e-03  Roothaan Step
 ---------------------------------------
  Cycle       Energy        RMS Gradient
 ---------------------------------------
    1    -192.4302795850      5.73e-03   Normal BFGS step
    2    -192.4305420290      1.92e-03   Normal BFGS step
    3    -192.4305761544      1.82e-03   Normal BFGS step
    4    -192.4306095705      2.91e-04   Normal BFGS step
    5    -192.4306107960      3.10e-04   Normal BFGS step
    6    -192.4306116234      7.29e-05   Normal BFGS step
    7    -192.4306116940      2.63e-05   Normal BFGS step
    8    -192.4306117051      1.27e-05   Normal BFGS step
    9    -192.4306117070      3.84e-06   Normal BFGS step
   10    -192.4306117073      1.57e-06   Normal BFGS step
   11    -192.4306117073      4.58e-07   Normal BFGS step
   12    -192.4306117073      1.42e-07   Normal BFGS step
   13    -192.4306117073      5.36e-08   Normal BFGS step
   14    -192.4306117073      1.90e-08   Normal BFGS step
   15    -192.4306117073      1.04e-08   Normal BFGS step
   16    -192.4306117073      3.71e-09  Convergence criterion met
 ---------------------------------------
 SCF time:   CPU 270.36s  wall 10.00s 
 SCF   energy in the final basis set =     -192.4306117073
 
 --------------------------------------------------------------
 
                    Orbital Energies (a.u.)
 --------------------------------------------------------------
 
 Alpha MOs
 -- Occupied --
-19.055 -10.151 -10.137 -10.016  -0.965  -0.611  -0.560  -0.474
 -0.398  -0.348  -0.283  -0.266  -0.247  -0.179  -0.162  -0.030
 -- Virtual --
  0.157   0.176   0.183   0.199   0.208   0.235   0.265   0.277
  0.295   0.297   0.307   0.315   0.325   0.341   0.347   0.364
  0.368   0.386   0.409   0.421   0.435   0.467   0.478   0.483
  0.488   0.504   0.549   0.577   0.620   0.628   0.706   0.728
  0.794   0.820   0.839   0.853   0.862   0.895   0.914   0.923
  0.937   0.961   0.972   0.994   1.122   1.165   1.222   1.347
  1.369   1.458   1.536   1.594   1.686   1.713   1.751   1.801
  1.876   1.917   1.993   2.023   2.064   2.135   2.194   2.262
  2.398   2.428   2.709   2.721   2.817   2.850   2.925   3.031
  3.046   3.181   3.263   3.326   3.389   3.415   3.448   3.460
  3.545   3.858   3.953   4.157   4.522   5.349   5.594   5.769
 23.767  24.053  24.156  50.217
 --------------------------------------------------------------
 
          Ground-State Mulliken Net Atomic Charges

     Atom                 Charge (a.u.)
  ----------------------------------------
      1 O                    -0.158781
      2 C                    -0.008773
      3 C                    -0.413459
      4 C                    -1.022154
      5 H                     0.169438
      6 H                     0.115522
      7 H                     0.156128
      8 H                     0.091468
      9 H                     0.070611
  ----------------------------------------
  Sum of atomic charges =    -1.000000

 -----------------------------------------------------------------
                    Cartesian Multipole Moments
 -----------------------------------------------------------------
    Charge (ESU x 10^10)
                -4.8032
    Dipole Moment (Debye)
         X       5.0803      Y      -0.6334      Z      -0.1639
       Tot       5.1223
    Quadrupole Moments (Debye-Ang)
        XX     -46.5300     XY      -4.8206     YY     -31.6157
        XZ       4.3790     YZ       2.2996     ZZ     -32.0410
    Octopole Moments (Debye-Ang^2)
       XXX      51.6040    XXY       6.3571    XYY       5.2856
       YYY       7.9903    XXZ      -9.3344    XYZ      -1.1379
       YYZ      -1.0666    XZZ      10.2938    YZZ       2.7636
       ZZZ       0.7155
    Hexadecapole Moments (Debye-Ang^3)
      XXXX    -397.0969   XXXY     -19.0517   XXYY     -74.8984
      XYYY      -7.6944   YYYY    -101.0421   XXXZ      33.8703
      XXYZ       4.2309   XYYZ       4.7504   YYYZ       3.7054
      XXZZ     -74.7213   XYZZ      -3.5709   YYZZ     -31.6117
      XZZZ       8.6383   YZZZ       3.7823   ZZZZ     -88.5614
 -----------------------------------------------------------------
 Calculating analytic gradient of the SCF energy
 Gradient of SCF Energy
            1           2           3           4           5           6
    1  -0.0068936   0.0090525   0.0015612  -0.0052351   0.0003169   0.0000108
    2  -0.0007694   0.0024183  -0.0013957   0.0065235  -0.0042024   0.0013411
    3   0.0049811  -0.0041770  -0.0016685   0.0011003   0.0016928  -0.0001878
            7           8           9
    1  -0.0003979   0.0022095  -0.0006242
    2   0.0004245  -0.0018762  -0.0024637
    3   0.0002621  -0.0050002   0.0029972
 Max gradient component =       9.052E-03
 RMS gradient           =       3.487E-03
 Gradient time:  CPU 26.80 s  wall 1.19 s
 Geometry Optimization Parameters
   NAtoms,    NIC,     NZ,  NCons,   NDum,   NFix, NCnnct, MaxDiis
        9      61       0       0       0       0       0       0

 Cartesian Hessian Update
 Hessian Updated using BFGS Update
**WARNING** Hereditary positive definiteness endangered


** GEOMETRY OPTIMIZATION IN DELOCALIZED INTERNAL COORDINATES **
   Searching for a Minimum

   Optimization Cycle:   7

                       Coordinates (Angstroms)
     ATOM                X               Y               Z
      1  O         0.8602750539    0.7206903319   -0.3484576755
      2  C        -0.2283151955    0.0332136742    0.4532893111
      3  C         0.9587753352   -0.6568627613   -0.0711360989
      4  C        -1.5965313306   -0.1561009319   -0.0462108985
      5  H        -0.0815884498    0.3574662408    1.4904693136
      6  H         1.7871362662   -0.9328003547    0.5910837915
      7  H         0.8241354110   -1.3225910780   -0.9264154846
      8  H        -1.9945678457    0.7291793051   -0.5583665406
      9  H        -1.6515227564   -1.0166827000   -0.7310451029
   Point Group: c1    Number of degrees of freedom:    21


   Energy is   -192.430611707

 Hessian Updated using BFGS Update
**WARNING** Hereditary positive definiteness endangered

 21 Hessian modes will be used to form the next step
  Hessian Eigenvalues:
    -0.002740    0.021030    0.027507    0.032539    0.042627    0.052607
     0.096123    0.113009    0.121964    0.125318    0.154878    0.158044
     0.273364    0.298928    0.331930    0.333701    0.337787    0.337946
     0.340424    0.346708    0.386988
**WARNING** Hessian does not have the Desired Local Structure

 Minimum Search - Taking Simple RFO Step
 Searching for Lamda that Minimizes Along All modes
 Value Taken    Lamda =  -0.01048486
 Calculated Step too Large.  Step scaled by  0.259742
 Step Taken.  Stepsize is  0.300000

                             Maximum     Tolerance    Cnvgd?
         Gradient           0.005703      0.000300      NO
         Displacement       0.148730      0.001200      NO
         Energy change     -0.002547      0.000001      NO


 New Cartesian Coordinates Obtained by Inverse Iteration

 Displacement from previous Coordinates is:  0.272892
 ----------------------------------------------------------------
             Standard Nuclear Orientation (Angstroms)
    I     Atom           X                Y                Z
 ----------------------------------------------------------------
    1      O       0.8831666282     0.7097636110    -0.3759888170
[...]
  3.170   3.249   3.262   3.276   3.399   3.442   3.518   3.548
  3.608   3.675   3.819   4.145   4.429   5.469   5.489   5.943
 23.696  24.010  24.504  50.331
 --------------------------------------------------------------
 
          Ground-State Mulliken Net Atomic Charges

     Atom                 Charge (a.u.)
  ----------------------------------------
      1 O                    -0.633405
      2 C                     0.359074
      3 C                    -0.631494
      4 C                    -0.691737
      5 H                     0.182331
      6 H                     0.042683
      7 H                     0.084214
      8 H                     0.138598
      9 H                     0.149735
  ----------------------------------------
  Sum of atomic charges =    -1.000000

 -----------------------------------------------------------------
                    Cartesian Multipole Moments
 -----------------------------------------------------------------
    Charge (ESU x 10^10)
                -4.8032
    Dipole Moment (Debye)
         X      -6.3120      Y      -1.3756      Z       1.6846
       Tot       6.6762
    Quadrupole Moments (Debye-Ang)
        XX     -46.3342     XY      -4.7213     YY     -32.7370
        XZ       3.4593     YZ       2.5850     ZZ     -30.6452
    Octopole Moments (Debye-Ang^2)
       XXX     -50.7179    XXY      -5.3895    XYY      -9.8529
       YYY       8.1246    XXZ       8.5853    XYZ       0.4507
       YYZ       2.4539    XZZ      -8.6366    YZZ       2.4726
       ZZZ       7.5013
    Hexadecapole Moments (Debye-Ang^3)
      XXXX    -440.7335   XXXY     -33.0827   XXYY     -84.4973
      XYYY     -13.8335   YYYY     -96.6274   XXXZ      27.2633
      XXYZ       5.6547   XYYZ       5.7102   YYYZ      -0.7248
      XXZZ     -80.4104   XYZZ      -4.9806   YYZZ     -29.2024
      XZZZ      17.2497   YZZZ       0.3710   ZZZZ     -75.0763
 -----------------------------------------------------------------
 Calculating analytic gradient of the SCF energy
 Gradient of SCF Energy
            1           2           3           4           5           6
    1  -0.0000362   0.0001146   0.0000912  -0.0001510  -0.0000485  -0.0000186
    2  -0.0000201  -0.0001103   0.0001494   0.0000040   0.0000461  -0.0000001
    3   0.0000137  -0.0000080   0.0000965   0.0000002   0.0000316   0.0000225
            7           8           9
    1   0.0001138  -0.0000352  -0.0000301
    2  -0.0000361   0.0000009  -0.0000337
    3  -0.0000457  -0.0000791  -0.0000317
 Max gradient component =       1.510E-04
 RMS gradient           =       6.756E-05
 Gradient time:  CPU 27.17 s  wall 1.18 s
 Geometry Optimization Parameters
   NAtoms,    NIC,     NZ,  NCons,   NDum,   NFix, NCnnct, MaxDiis
        9      61       0       0       0       0       0       0

 Cartesian Hessian Update
 Hessian Updated using BFGS Update


** GEOMETRY OPTIMIZATION IN DELOCALIZED INTERNAL COORDINATES **
   Searching for a Minimum

   Optimization Cycle:  30

                       Coordinates (Angstroms)
     ATOM                X               Y               Z
      1  O         1.8905416253    0.5220844016   -0.4221532432
      2  C        -0.3245146600    0.0828731530    0.3519941990
      3  C         1.0233391739   -0.4466162093   -0.1254117770
      4  C        -1.5304128676   -0.2229526679   -0.1313542475
      5  H        -0.2372172674    0.8336502847    1.1412772632
      6  H         1.3593506431   -1.1437847772    0.7094439951
      7  H         0.7864597845   -1.1613175025   -0.9705471132
      8  H        -2.4468393498    0.2303397442    0.2458268225
      9  H        -1.6429105937   -0.9387647004   -0.9458652838
   Point Group: c1    Number of degrees of freedom:    21


   Energy is   -192.488597169

 Hessian Updated using BFGS Update

 21 Hessian modes will be used to form the next step
  Hessian Eigenvalues:
     0.002592    0.010237    0.021912    0.033584    0.049202    0.079002
     0.084464    0.111460    0.127672    0.154253    0.159233    0.168526
     0.195307    0.321176    0.332443    0.336176    0.338238    0.341461
     0.350461    0.416617    0.684440

 Minimum Search - Taking Simple RFO Step
 Searching for Lamda that Minimizes Along All modes
 Value Taken    Lamda =   0.00000000
 Step Taken.  Stepsize is  0.005796

                             Maximum     Tolerance    Cnvgd?
         Gradient           0.000296      0.000300     YES
         Displacement       0.002591      0.001200      NO
         Energy change     -0.000003      0.000001      NO


 New Cartesian Coordinates Obtained by Inverse Iteration

 Displacement from previous Coordinates is:  0.006644
 ----------------------------------------------------------------
             Standard Nuclear Orientation (Angstroms)
    I     Atom           X                Y                Z
 ----------------------------------------------------------------
    1      O       1.8910641584     0.5213202063    -0.4228164447
    2      C      -0.3244213065     0.0837426579     0.3521656876
    3      C       1.0229729907    -0.4465133221    -0.1255172261
    4      C      -1.5298651787    -0.2229567448    -0.1314172093
    5      H      -0.2374007648     0.8339719551     1.1418899419
    6      H       1.3587482191    -1.1435837937     0.7094737190
    7      H       0.7845968870    -1.1610977282    -0.9702037038
    8      H      -2.4468011542     0.2290727063     0.2459853141
    9      H      -1.6410973628    -0.9384442106    -0.9463494638
 ----------------------------------------------------------------
 Molecular Point Group                 C1    NOp =  1
 Largest Abelian Subgroup              C1    NOp =  1
 Nuclear Repulsion Energy =   108.3185219604 hartrees
 There are       16 alpha and       16 beta electrons
 Applying Cartesian multipole field
    Component          Value
    ---------          -----
     (2,0,0)        1.00000E-11
     (0,2,0)        2.00000E-11
     (0,0,2)       -3.00000E-11
 Nucleus-field energy     =     0.0000000021 hartrees
 Requested basis set is 6-311++G(d)
 There are 44 shells and 108 basis functions
 A cutoff of  1.0D-12 yielded    972 shell pairs
 There are      5937 function pairs (      6392 Cartesian)
 Smallest overlap matrix eigenvalue = 5.54E-05
 Guess MOs from SCF MO coefficient file
 Reading MOs from coefficient file
 Reading MOs from coefficient file

 -----------------------------------------------------------------------
  General SCF calculation program by
  Eric Jon Sundstrom, Paul Horn, Yuezhi Mao, Dmitri Zuev, Alec White,
  David Stuck, Shaama M.S., Shane Yost, Joonho Lee, David Small,
  Daniel Levine, Susi Lehtola, Hugh Burton, Evgeny Epifanovsky
 -----------------------------------------------------------------------
 Exchange:     0.2220 Hartree-Fock + 1.0000 wB97X-D + LR-HF
 Correlation:  1.0000 wB97X-D
 Using SG-2 standard quadrature grid
 Dispersion:   Grimme D
 using 32 threads for integral computing
 -------------------------------------------------------
 OpenMP Integral computing Module                
 Release: version 1.0, May 2013, Q-Chem Inc. Pittsburgh 
 -------------------------------------------------------
 using 32 threads for integral computing
 -------------------------------------------------------
 OpenMP Integral computing Module                
 Release: version 1.0, May 2013, Q-Chem Inc. Pittsburgh 
 -------------------------------------------------------
 -------------------------------------------------------
 OpenMP BLAS3 based DFT computing Module                
 Release: version 1.0, May 2013, Q-Chem Inc. Pittsburgh 
 -------------------------------------------------------
 A restricted SCF calculation will be
 performed using Roothaan-Hall, GDM
 SCF converges when RMS gradient is below 1.0e-08
 ---------------------------------------
  Cycle       Energy         DIIS error
 ---------------------------------------
    1    -192.4885963291      2.32e-05  Roothaan Step
 ---------------------------------------
  Cycle       Energy        RMS Gradient
 ---------------------------------------
    1    -192.4885975767      4.74e-05   Normal BFGS step
    2    -192.4885976483      4.57e-05   Normal BFGS step
    3    -192.4885976598      3.23e-05   Normal BFGS step
    4    -192.4885976689      4.80e-06   Normal BFGS step
    5    -192.4885976691      4.74e-06   Normal BFGS step
    6    -192.4885976692      9.96e-07   Normal BFGS step
    7    -192.4885976692      5.89e-07   Normal BFGS step
    8    -192.4885976692      1.11e-07   Normal BFGS step
    9    -192.4885976692      3.09e-08   Normal BFGS step
   10    -192.4885976692      1.32e-08   Normal BFGS step
   11    -192.4885976692      5.19e-09  Convergence criterion met
 ---------------------------------------
 SCF time:   CPU 197.94s  wall 7.00s 
 SCF   energy in the final basis set =     -192.4885976692
 
 --------------------------------------------------------------
 
                    Orbital Energies (a.u.)
 --------------------------------------------------------------
 
 Alpha MOs
 -- Occupied --
-18.925 -10.115 -10.112 -10.111  -0.811  -0.694  -0.542  -0.463
 -0.377  -0.337  -0.293  -0.255  -0.229  -0.173  -0.067  -0.062
 -- Virtual --
  0.153   0.169   0.178   0.191   0.206   0.227   0.253   0.278
  0.280   0.298   0.309   0.315   0.320   0.325   0.331   0.344
  0.351   0.363   0.410   0.419   0.448   0.455   0.489   0.517
  0.542   0.558   0.581   0.593   0.629   0.653   0.700   0.718
  0.760   0.795   0.812   0.827   0.876   0.907   0.931   0.941
  0.955   0.978   0.992   1.054   1.080   1.169   1.248   1.342
  1.409   1.478   1.520   1.541   1.631   1.663   1.741   1.808
  1.870   1.895   1.964   2.009   2.070   2.181   2.245   2.310
  2.431   2.515   2.657   2.734   2.761   2.808   2.979   3.061
  3.170   3.249   3.262   3.276   3.399   3.443   3.519   3.548
  3.608   3.675   3.819   4.145   4.429   5.469   5.489   5.943
 23.696  24.010  24.504  50.331
 --------------------------------------------------------------
 
          Ground-State Mulliken Net Atomic Charges

     Atom                 Charge (a.u.)
  ----------------------------------------
      1 O                    -0.633466
      2 C                     0.359163
      3 C                    -0.631429
      4 C                    -0.691571
      5 H                     0.182216
      6 H                     0.042668
      7 H                     0.084218
      8 H                     0.138677
      9 H                     0.149525
  ----------------------------------------
  Sum of atomic charges =    -1.000000

 -----------------------------------------------------------------
                    Cartesian Multipole Moments
 -----------------------------------------------------------------
    Charge (ESU x 10^10)
                -4.8032
    Dipole Moment (Debye)
         X      -6.3157      Y      -1.3738      Z       1.6882
       Tot       6.6802
    Quadrupole Moments (Debye-Ang)
        XX     -46.3429     XY      -4.7156     YY     -32.7336
        XZ       3.4647     YZ       2.5855     ZZ     -30.6451
    Octopole Moments (Debye-Ang^2)
       XXX     -50.7672    XXY      -5.3885    XYY      -9.8478
       YYY       8.1241    XXZ       8.6129    XYZ       0.4536
       YYZ       2.4587    XZZ      -8.6502    YZZ       2.4703
       ZZZ       7.5184
    Hexadecapole Moments (Debye-Ang^3)
      XXXX    -440.7438   XXXY     -33.0438   XXYY     -84.4704
      XYYY     -13.8215   YYYY     -96.5858   XXXZ      27.3167
      XXYZ       5.6460   XYYZ       5.7180   YYYZ      -0.7299
      XXZZ     -80.4155   XYZZ      -4.9781   YYZZ     -29.1985
      XZZZ      17.2867   YZZZ       0.3697   ZZZZ     -75.1104
 -----------------------------------------------------------------
 Calculating analytic gradient of the SCF energy
 Gradient of SCF Energy
            1           2           3           4           5           6
    1   0.0000076   0.0000204   0.0000434  -0.0000403  -0.0000557  -0.0000157
    2   0.0000266  -0.0000045   0.0000038  -0.0000328   0.0000041   0.0000282
    3   0.0000234  -0.0000270   0.0000437  -0.0000067   0.0000145   0.0000310
            7           8           9
    1   0.0000388  -0.0000121   0.0000137
    2   0.0000059  -0.0000117  -0.0000196
    3   0.0000034  -0.0000518  -0.0000306
 Max gradient component =       5.571E-05
 RMS gradient           =       2.748E-05
 Gradient time:  CPU 25.81 s  wall 1.15 s
 Geometry Optimization Parameters
   NAtoms,    NIC,     NZ,  NCons,   NDum,   NFix, NCnnct, MaxDiis
        9      61       0       0       0       0       0       0

 Cartesian Hessian Update
 Hessian Updated using BFGS Update


** GEOMETRY OPTIMIZATION IN DELOCALIZED INTERNAL COORDINATES **
   Searching for a Minimum

   Optimization Cycle:  31

                       Coordinates (Angstroms)
     ATOM                X               Y               Z
      1  O         1.8910641584    0.5213202063   -0.4228164447
      2  C        -0.3244213065    0.0837426579    0.3521656876
      3  C         1.0229729907   -0.4465133221   -0.1255172261
      4  C        -1.5298651787   -0.2229567448   -0.1314172093
      5  H        -0.2374007648    0.8339719551    1.1418899419
      6  H         1.3587482191   -1.1435837937    0.7094737190
      7  H         0.7845968870   -1.1610977282   -0.9702037038
      8  H        -2.4468011542    0.2290727063    0.2459853141
      9  H        -1.6410973628   -0.9384442106   -0.9463494638
   Point Group: c1    Number of degrees of freedom:    21


   Energy is   -192.488597669

 Hessian Updated using BFGS Update

 21 Hessian modes will be used to form the next step
  Hessian Eigenvalues:
     0.002598    0.010636    0.021890    0.033551    0.049516    0.076809
     0.084201    0.103990    0.119860    0.154046    0.159474    0.165295
     0.197191    0.314124    0.332407    0.335942    0.338171    0.341617
     0.348248    0.417798    0.669255

 Minimum Search - Taking Simple RFO Step
 Searching for Lamda that Minimizes Along All modes
 Value Taken    Lamda =   0.00000000
 Step Taken.  Stepsize is  0.000973

                             Maximum     Tolerance    Cnvgd?
         Gradient           0.000064      0.000300     YES
         Displacement       0.000512      0.001200     YES
         Energy change     -0.000001      0.000001     YES


                       Distance Matrix (Angstroms)
             O (  1)   C (  2)   C (  3)   C (  4)   H (  5)   H (  6)
   C (  2)  2.387561
   C (  3)  1.333668  1.524737
   C (  4)  3.513064  1.334546  2.562615
   H (  5)  2.660154  1.092740  2.198751  2.099732
   H (  6)  2.082630  2.113542  1.138359  3.146226  2.577868
   H (  7)  2.086728  2.127959  1.131790  2.634465  3.079890  1.775182
   H (  8)  4.398838  2.129998  3.554401  1.089741  2.459674  4.072004
   H (  9)  3.857611  2.112970  2.830730  1.090142  3.077754  3.432624
             H (  7)   H (  8)
   H (  8)  3.722046
   H (  9)  2.436008  1.853083
 
 Final energy is   -192.488597669246     


 ******************************
 **  OPTIMIZATION CONVERGED  **
 ******************************

                       Coordinates (Angstroms)
     ATOM                X               Y               Z
      1  O         1.8910641584    0.5213202063   -0.4228164447
      2  C        -0.3244213065    0.0837426579    0.3521656876
      3  C         1.0229729907   -0.4465133221   -0.1255172261
      4  C        -1.5298651787   -0.2229567448   -0.1314172093
      5  H        -0.2374007648    0.8339719551    1.1418899419
      6  H         1.3587482191   -1.1435837937    0.7094737190
      7  H         0.7845968870   -1.1610977282   -0.9702037038
      8  H        -2.4468011542    0.2290727063    0.2459853141
      9  H        -1.6410973628   -0.9384442106   -0.9463494638

Z-matrix Print:
$molecule
-1 1
C 
H  1 1.131790
H  1 1.138359 2 102.881695
O  1 1.333668 2 115.398218 3 125.511070 0
C  1 1.524737 2 105.501711 3 -108.843214 0
H  5 1.092740 1 113.253788 2 -176.965965 0
C  5 1.334546 1 127.211400 2 -0.463564 0
H  7 1.089741 5 122.629619 1 -177.809795 0
H  7 1.090142 5 120.922426 1 1.238118 0
$end

 
 --------------------------------------------------------------
 
                    Orbital Energies (a.u.)
 --------------------------------------------------------------
 
 Alpha MOs
 -- Occupied --
-18.925 -10.115 -10.112 -10.111  -0.811  -0.694  -0.542  -0.463
 -0.377  -0.337  -0.293  -0.255  -0.229  -0.173  -0.067  -0.062
 -- Virtual --
  0.153   0.169   0.178   0.191   0.206   0.227   0.253   0.278
  0.280   0.298   0.309   0.315   0.320   0.325   0.331   0.344
  0.351   0.363   0.410   0.419   0.448   0.455   0.489   0.517
  0.542   0.558   0.581   0.593   0.629   0.653   0.700   0.718
  0.760   0.795   0.812   0.827   0.876   0.907   0.931   0.941
  0.955   0.978   0.992   1.054   1.080   1.169   1.248   1.342
  1.409   1.478   1.520   1.541   1.631   1.663   1.741   1.808
  1.870   1.895   1.964   2.009   2.070   2.181   2.245   2.310
  2.431   2.515   2.657   2.734   2.761   2.808   2.979   3.061
  3.170   3.249   3.262   3.276   3.399   3.443   3.519   3.548
  3.608   3.675   3.819   4.145   4.429   5.469   5.489   5.943
 23.696  24.010  24.504  50.331
 --------------------------------------------------------------
 
          Ground-State Mulliken Net Atomic Charges

     Atom                 Charge (a.u.)
  ----------------------------------------
      1 O                    -0.633466
      2 C                     0.359163
      3 C                    -0.631429
      4 C                    -0.691571
      5 H                     0.182216
      6 H                     0.042668
      7 H                     0.084218
      8 H                     0.138677
      9 H                     0.149525
  ----------------------------------------
  Sum of atomic charges =    -1.000000

 -----------------------------------------------------------------
                    Cartesian Multipole Moments
 -----------------------------------------------------------------
    Charge (ESU x 10^10)
                -4.8032
    Dipole Moment (Debye)
         X      -6.3157      Y      -1.3738      Z       1.6882
       Tot       6.6802
    Quadrupole Moments (Debye-Ang)
        XX     -46.3429     XY      -4.7156     YY     -32.7336
        XZ       3.4647     YZ       2.5855     ZZ     -30.6451
    Octopole Moments (Debye-Ang^2)
       XXX     -50.7672    XXY      -5.3885    XYY      -9.8478
       YYY       8.1241    XXZ       8.6129    XYZ       0.4536
       YYZ       2.4587    XZZ      -8.6502    YZZ       2.4703
       ZZZ       7.5184
    Hexadecapole Moments (Debye-Ang^3)
      XXXX    -440.7438   XXXY     -33.0438   XXYY     -84.4704
      XYYY     -13.8215   YYYY     -96.5858   XXXZ      27.3167
      XXYZ       5.6460   XYYZ       5.7180   YYYZ      -0.7299
      XXZZ     -80.4155   XYZZ      -4.9781   YYZZ     -29.1985
      XZZZ      17.2867   YZZZ       0.3697   ZZZZ     -75.1104
 -----------------------------------------------------------------
Archival summary:
1\1\nid02264\OPT\ProcedureUnspecified\BasisUnspecified\135(1-,1)\sblau\WedJul1117:59:492018WedJul1117:59:492018\0\\#,OPT,ProcedureUnspecified,BasisUnspecified,\\-1,1\C\H,1,1.13179\H,1,1.13836,2,102.882\O,1,1.33367,2,115.398,3,125.511,0\C,1,1.52474,2,105.502,3,-108.843,0\H,5,1.09274,1,113.254,2,-176.966,0\C,5,1.33455,1,127.211,2,-0.463564,0\H,7,1.08974,5,122.63,1,-177.81,0\H,7,1.09014,5,120.922,1,1.23812,0\\\@

 Total job time:  332.87s(wall), 9026.03s(cpu) 
 Wed Jul 11 17:59:49 2018

        *************************************************************
        *                                                           *
        *  Thank you very much for using Q-Chem.  Have a nice day.  *
        *                                                           *
        *************************************************************


0 sent ACK to 0 
now end server 0 ... 
cleanup process ... done
