
Running Job 1 of 1 mol.qin
qchem mol.qin_6912.0 /tmp/qchem6912/ 1
srun -n 1 /global/common/edison/software/qchem/5.1beta/exe/qcprog.exe mol.qin_6912.0 /tmp/qchem6912/

Process 0 of 1 is on nid05359 - thread support 0
initial socket setup ...start
initial socket setup ...done 
now start server 0 ... 
Check license passed

                  Welcome to Q-Chem
     A Quantum Leap Into The Future Of Chemistry


 Q-Chem 5.1, Q-Chem, Inc., Pleasanton, CA (2018)

 Yihan Shao,  Zhengting Gan,  E. Epifanovsky,  A. T. B. Gilbert,  M. Wormit,  
 J. Kussmann,  A. W. Lange,  A. Behn,  Jia Deng,  Xintian Feng,  D. Ghosh,  
 M. Goldey,  P. R. Horn,  L. D. Jacobson,  I. Kaliman,  T. Kus,  A. Landau,  
 Jie Liu,  E. I. Proynov,  R. M. Richard,  R. P. Steele,  E. J. Sundstrom,  
 H. L. Woodcock III,  P. M. Zimmerman,  D. Zuev,  B. Albrecht,  E. Alguire,  
 S. A. Baeppler,  D. Barton,  Z. Benda,  Y. A. Bernard,  E. J. Berquist,  
 K. B. Bravaya,  H. Burton,  D. Casanova,  Chun-Min Chang,  Yunqing Chen,  
 A. Chien,  K. D. Closser,  M. P. Coons,  S. Coriani,  S. Dasgupta,  
 A. L. Dempwolff,  M. Diedenhofen,  Hainam Do,  R. G. Edgar,  Po-Tung Fang,  
 S. Faraji,  S. Fatehi,  Qingguo Feng,  K. D. Fenk,  J. Fosso-Tande,  
 Qinghui Ge,  A. Ghysels,  G. Gidofalvi,  J. Gomes,  J. Gonthier,  A. Gunina,  
 D. Hait,  M. W. D. Hanson-Heine,  P. H. P. Harbach,  A. W. Hauser,  
 J. E. Herr,  E. G. Hohenstein,  Z. C. Holden,  Kerwin Hui,  B. C. Huynh,  
 T.-C. Jagau,  Hyunjun Ji,  B. Kaduk,  K. Khistyaev,  Jaehoon Kim,  
 P. Klunzinger,  K. Koh,  D. Kosenkov,  L. Koulias,  T. Kowalczyk,  
 C. M. Krauter,  A. Kunitsa,  Ka Un Lao,  A. Laurent,  K. V. Lawler,  
 Joonho Lee,  D. Lefrancois,  S. Lehtola,  D. S. Levine,  Yi-Pei Li,  
 You-Sheng Lin,  Fenglai Liu,  E. Livshits,  A. Luenser,  P. Manohar,  
 E. Mansoor,  S. F. Manzer,  Shan-Ping Mao,  Yuezhi Mao,  N. Mardirossian,  
 A. V. Marenich,  T. Markovich,  L. A. Martinez-Martinez,  S. A. Maurer,  
 N. J. Mayhall,  S. C. McKenzie,  J.-M. Mewes,  A. F. Morrison,  
 J. W. Mullinax,  K. Nanda,  T. S. Nguyen-Beck,  R. Olivares-Amaya,  
 J. A. Parkhill,  T. M. Perrine,  F. Plasser,  P. Pokhilko,  S. Prager,  
 A. Prociuk,  E. Ramos,  D. R. Rehn,  F. Rob,  M. Schneider,  N. Sergueev,  
 S. M. Sharada,  S. Sharma,  D. W. Small,  T. Stauch,  T. Stein,  
 Yu-Chuan Su,  A. J. W. Thom,  A. Tkatchenko,  T. Tsuchimochi,  N. M. Tubman,  
 L. Vogt,  M. L. Vidal,  O. Vydrov,  M. A. Watson,  J. Wenzel,  
 M. de Wergifosse,  T. A. Wesolowski,  A. White,  J. Witte,  A. Yamada,  
 Jun Yang,  K. Yao,  S. Yeganeh,  S. R. Yost,  Zhi-Qiang You,  A. Zech,  
 Igor Ying Zhang,  Xing Zhang,  Yan Zhao,  Ying Zhu,  B. R. Brooks,  
 G. K. L. Chan,  C. J. Cramer,  M. S. Gordon,  W. J. Hehre,  A. Klamt,  
 M. W. Schmidt,  C. D. Sherrill,  D. G. Truhlar,  A. Aspuru-Guzik,  R. Baer,  
 A. T. Bell,  N. A. Besley,  Jeng-Da Chai,  R. A. DiStasio Jr.,  A. Dreuw,  
 B. D. Dunietz,  T. R. Furlani,  Chao-Ping Hsu,  Yousung Jung,  Jing Kong,  
 D. S. Lambrecht,  WanZhen Liang,  C. Ochsenfeld,  V. A. Rassolov,  
 L. V. Slipchenko,  J. E. Subotnik,  T. Van Voorhis,  J. M. Herbert,  
 A. I. Krylov,  P. M. W. Gill,  M. Head-Gordon

 Contributors to earlier versions of Q-Chem not listed above: 
 R. D. Adamson,  B. Austin,  J. Baker,  G. J. O. Beran,  K. Brandhorst,  
 S. T. Brown,  E. F. C. Byrd,  A. K. Chakraborty,  C.-L. Cheng,  
 Siu Hung Chien,  D. M. Chipman,  D. L. Crittenden,  H. Dachsel,  
 R. J. Doerksen,  A. D. Dutoi,  L. Fusti-Molnar,  W. A. Goddard III,  
 A. Golubeva-Zadorozhnaya,  S. R. Gwaltney,  G. Hawkins,  A. Heyden,  
 S. Hirata,  G. Kedziora,  F. J. Keil,  C. Kelley,  Jihan Kim,  R. A. King,  
 R. Z. Khaliullin,  P. P. Korambath,  W. Kurlancheek,  A. M. Lee,  M. S. Lee,  
 S. V. Levchenko,  Ching Yeh Lin,  D. Liotard,  R. C. Lochan,  I. Lotan,  
 P. E. Maslen,  N. Nair,  D. P. O'Neill,  D. Neuhauser,  E. Neuscamman,  
 C. M. Oana,  R. Olson,  B. Peters,  R. Peverati,  P. A. Pieniazek,  
 Y. M. Rhee,  J. Ritchie,  M. A. Rohrdanz,  E. Rosta,  N. J. Russ,  
 H. F. Schaefer III,  N. E. Schultz,  N. Shenvi,  A. C. Simmonett,  A. Sodt,  
 D. Stuck,  K. S. Thanthiriwatte,  V. Vanovschi,  Tao Wang,  A. Warshel,  
 C. F. Williams,  Q. Wu,  X. Xu,  W. Zhang

 Please cite Q-Chem as follows:
 Y. Shao et al., Mol. Phys. 113, 184-215 (2015)
 DOI: 10.1080/00268976.2014.952696

 Q-Chem 5.1.0 for Intel X86 EM64T Linux

 Parts of Q-Chem use Armadillo 8.300.2 (Tropical Shenanigans).
 http://arma.sourceforge.net/

 Q-Chem begins on Wed Jul 11 18:06:45 2018  

Host: edison04
0

     Scratch files written to /tmp/qchem6912//
 Apr1918  _RNUM -1
 Parallel job on  1  processors
Processing $rem in /global/common/edison/software/qchem/5.1beta/config/preferences.
 MEM_TOTAL  2000 

Checking the input file for inconsistencies... 	...done.

--------------------------------------------------------------
User input:
--------------------------------------------------------------
$molecule
-1 1
O     -0.0721167665     -0.9423525538      0.1290391903
O     -0.9128152807      1.1031948336     -0.0245850683
C      1.0295613906     -0.0735259180      0.4243446514
C      0.4993856923      1.2773171897     -0.0556605261
C      2.2823788219     -0.5560560675     -0.2650326350
H      1.1583513217     -0.0744629277      1.5119911786
$end

$rem
job_type = opt
basis = 6-311++g*
max_scf_cycles = 200
gen_scfman = true
scf_algorithm = gdm
method = wb97xd
geom_opt_max_cycles = 200
$end
--------------------------------------------------------------
 ----------------------------------------------------------------
             Standard Nuclear Orientation (Angstroms)
    I     Atom           X                Y                Z
 ----------------------------------------------------------------
    1      O       0.1583418708    -1.1991259994    -0.0857922743
    2      O      -1.6750036596     0.0472187009    -0.0961640054
    3      C       0.5963195482     0.0951794553     0.3486139230
    4      C      -0.5955434065     0.9726373776    -0.0332219513
    5      C       1.9031439388     0.4599510029    -0.3122791352
    6      H       0.7097738268     0.0486513734     1.4369732188
 ----------------------------------------------------------------
 Molecular Point Group                 C1    NOp =  1
 Largest Abelian Subgroup              C1    NOp =  1
 Nuclear Repulsion Energy =   132.3072368868 hartrees
 There are       18 alpha and       18 beta electrons
 Requested basis set is 6-311++G(d)
 There are 34 shells and 114 basis functions

 Total QAlloc Memory Limit   2000 MB
 Mega-Array Size       188 MB
 MEM_STATIC part       192 MB
 A cutoff of  1.0D-12 yielded    586 shell pairs
 There are      6669 function pairs (      7274 Cartesian)
 
 -------------------------------------------------------
 OpenMP Integral Computing Module                       
 Release: version 1.0, May 2013, Q-Chem Inc. Pittsburgh 
 -------------------------------------------------------
 Integral Job Info:
 Integral job number is                      11
 Integral operator is                         1
 short-range coefficients              22203600
 long-range coefficients              100000000
 Omega coefficients                         200
 if combine SR and LR in K                    1
 Integral screening is                        0
 Integral computing path is                   2
 max size of driver memory is            800000
 size of driver memory is                593474
 size of scratch memory is              2428936
 max col of scratch BK array               1296
 max len of scratch array in speh3          155
 max len of scratch index in speh4           18
 max int batch size is                      520
 min int batch size is                       52
 fixed nKL is                                52
 max L of basis functions is                  2
 order of int derivative is                   0
 number of shells is                         34
 number of basis is                         119
 number of cartesian basis is               119
 number of contracted shell pairs           586
 number of primitive shell pairs           1911
 maxK2 (contraction) of shell pair           36
 max number of K2 of shell pair               1
 max number of CS2 of shell pair            122
 max number of PS2 of shell pair            456
 mem total for path MDJ                  521606
 -------------------------------------------------------
 Smallest overlap matrix eigenvalue = 7.88E-05

 Scale SEOQF with 1.000000e-01/1.000000e-01/1.000000e-01

 Standard Electronic Orientation quadrupole field applied
 Nucleus-field energy     =     0.0000000027 hartrees
 Guess from superposition of atomic densities
 Warning:  Energy on first SCF cycle will be non-variational
 SAD guess density has 35.000000 electrons

 -----------------------------------------------------------------------
  General SCF calculation program by
  Eric Jon Sundstrom, Paul Horn, Yuezhi Mao, Dmitri Zuev, Alec White,
  David Stuck, Shaama M.S., Shane Yost, Joonho Lee, David Small,
  Daniel Levine, Susi Lehtola, Hugh Burton, Evgeny Epifanovsky
 -----------------------------------------------------------------------
 Exchange:     0.2220 Hartree-Fock + 1.0000 wB97X-D + LR-HF
 Correlation:  1.0000 wB97X-D
 Using SG-2 standard quadrature grid
 Dispersion:   Grimme D
 using 32 threads for integral computing
 -------------------------------------------------------
 OpenMP Integral computing Module                
 Release: version 1.0, May 2013, Q-Chem Inc. Pittsburgh 
 -------------------------------------------------------
 using 32 threads for integral computing
 -------------------------------------------------------
 OpenMP Integral computing Module                
 Release: version 1.0, May 2013, Q-Chem Inc. Pittsburgh 
 -------------------------------------------------------
 -------------------------------------------------------
 OpenMP BLAS3 based DFT computing Module                
 Release: version 1.0, May 2013, Q-Chem Inc. Pittsburgh 
 -------------------------------------------------------
 A restricted SCF calculation will be
 performed using Roothaan-Hall, GDM
 SCF converges when RMS gradient is below 1.0e-08
 ---------------------------------------
  Cycle       Energy         DIIS error
 ---------------------------------------
    1    -265.1613132736      4.46e-02  Roothaan Step
 ---------------------------------------
  Cycle       Energy        RMS Gradient
 ---------------------------------------
    1    -264.5130400607      3.13e-01   Descent step
    2    -264.8884568357      1.52e-01   Dog-leg BFGS step
    3    -264.9421806908      1.16e-01   Normal BFGS step
    4    -264.9566339028      6.58e-02   Normal BFGS step
    5    -264.9810558664      2.91e-02   Normal BFGS step
    6    -264.9826479898      2.28e-02   Normal BFGS step
    7    -264.9843384180      1.44e-02   Normal BFGS step
    8    -264.9845251370      1.01e-02   Normal BFGS step
    9    -264.9847815843      3.44e-03   Normal BFGS step
   10    -264.9848878429      2.13e-03   Normal BFGS step
   11    -264.9849492078      1.82e-03   Normal BFGS step
   12    -264.9849806827      1.18e-03   Normal BFGS step
   13    -264.9849959004      7.77e-04   Normal BFGS step
   14    -264.9850011997      5.09e-04   Normal BFGS step
   15    -264.9850031448      2.94e-04   Normal BFGS step
   16    -264.9850042682      1.53e-04   Normal BFGS step
   17    -264.9850046272      1.26e-04   Normal BFGS step
   18    -264.9850047490      6.41e-05   Normal BFGS step
   19    -264.9850047893      3.12e-05   Normal BFGS step
   20    -264.9850048021      1.55e-05   Normal BFGS step
   21    -264.9850048050      8.03e-06   Normal BFGS step
   22    -264.9850048058      7.47e-06   Normal BFGS step
   23    -264.9850048061      4.71e-06   Normal BFGS step
   24    -264.9850048063      1.97e-06   Normal BFGS step
   25    -264.9850048063      1.24e-06   Normal BFGS step
   26    -264.9850048063      1.07e-06   Normal BFGS step
   27    -264.9850048063      1.23e-06   Normal BFGS step
   28    -264.9850048063      3.69e-07   Normal BFGS step
   29    -264.9850048063      3.06e-07   Normal BFGS step
   30    -264.9850048063      7.64e-08   Normal BFGS step
   31    -264.9850048063      2.62e-08   Normal BFGS step
   32    -264.9850048063      1.59e-08   Normal BFGS step
   33    -264.9850048063      6.12e-09  Convergence criterion met
 ---------------------------------------
 SCF time:   CPU 556.08s  wall 20.00s 
 SCF   energy in the final basis set =     -264.9850048063
 
 --------------------------------------------------------------
 
                    Orbital Energies (a.u.)
 --------------------------------------------------------------
 
 Alpha MOs
 -- Occupied --
-19.078 -19.037 -10.234 -10.188 -10.183  -0.906  -0.841  -0.661
 -0.518  -0.438  -0.329  -0.313  -0.272  -0.233  -0.214  -0.152
 -0.126  -0.100
 -- Virtual --
  0.100   0.106   0.163   0.188   0.215   0.235   0.255   0.264
  0.270   0.271   0.279   0.306   0.308   0.313   0.331   0.369
  0.420   0.433   0.460   0.473   0.490   0.505   0.518   0.521
  0.534   0.551   0.586   0.600   0.646   0.754   0.763   0.792
  0.799   0.825   0.829   0.845   0.857   0.890   0.928   1.026
  1.109   1.234   1.263   1.284   1.338   1.370   1.424   1.460
  1.492   1.513   1.594   1.600   1.656   1.721   1.762   1.828
  1.909   1.937   1.985   2.018   2.058   2.131   2.169   2.346
  2.399   2.746   2.937   2.958   3.003   3.043   3.063   3.118
  3.132   3.151   3.172   3.210   3.247   3.382   3.408   3.430
  3.452   3.754   3.996   4.237   4.324   5.297   5.367   5.389
  5.428   5.629   5.817  23.627  23.841  23.967  50.142  50.248
 --------------------------------------------------------------
 
          Ground-State Mulliken Net Atomic Charges

     Atom                 Charge (a.u.)
  ----------------------------------------
      1 O                    -0.374962
      2 O                    -0.289424
      3 C                    -0.320081
      4 C                    -0.274937
      5 C                     0.032283
      6 H                     0.227120
  ----------------------------------------
  Sum of atomic charges =    -1.000000

 -----------------------------------------------------------------
                    Cartesian Multipole Moments
 -----------------------------------------------------------------
    Charge (ESU x 10^10)
                -4.8032
    Dipole Moment (Debye)
         X       1.4636      Y       1.0608      Z       2.0828
       Tot       2.7578
    Quadrupole Moments (Debye-Ang)
        XX     -46.0827     XY       2.1741     YY     -42.0702
        XZ       2.3270     YZ       0.1417     ZZ     -30.4767
    Octopole Moments (Debye-Ang^2)
       XXX     -19.9546    XXY      -7.1863    XYY      -3.9456
       YYY     -12.1884    XXZ       8.0161    XYZ       1.0065
       YYZ       1.7638    XZZ      -4.0367    YZZ      -2.7933
       ZZZ       4.3605
    Hexadecapole Moments (Debye-Ang^3)
      XXXX    -406.6297   XXXY      -3.4123   XXYY     -86.6794
      XYYY      11.3202   YYYY    -179.2903   XXXZ      21.3096
      XXYZ       4.2803   XYYZ       3.0446   YYYZ       2.3961
      XXZZ     -67.4810   XYZZ       0.1544   YYZZ     -36.4743
      XZZZ       7.0866   YZZZ       0.2397   ZZZZ     -53.3647
 -----------------------------------------------------------------
 Calculating analytic gradient of the SCF energy
 Gradient of SCF Energy
            1           2           3           4           5           6
    1  -0.0643619  -0.1201287  -0.0666341   0.1828974   0.0677469   0.0004803
    2  -0.0164075  -0.1244798   0.0466209   0.0641864   0.0480922  -0.0180122
    3   0.0041864  -0.0092087   0.0428362   0.0045508  -0.0348871  -0.0074775
 Max gradient component =       1.829E-01
 RMS gradient           =       7.031E-02
 Gradient time:  CPU 31.34 s  wall 1.65 s
 Geometry Optimization Parameters
   NAtoms,    NIC,     NZ,  NCons,   NDum,   NFix, NCnnct, MaxDiis
        6      27       0       0       0       0       0       0


** GEOMETRY OPTIMIZATION IN DELOCALIZED INTERNAL COORDINATES **
   Searching for a Minimum

   Optimization Cycle:   1

                       Coordinates (Angstroms)
     ATOM                X               Y               Z
      1  O         0.1583418708   -1.1991259994   -0.0857922743
      2  O        -1.6750036596    0.0472187009   -0.0961640054
      3  C         0.5963195482    0.0951794553    0.3486139230
      4  C        -0.5955434065    0.9726373776   -0.0332219513
      5  C         1.9031439388    0.4599510029   -0.3122791352
      6  H         0.7097738268    0.0486513734    1.4369732188
   Point Group: c1    Number of degrees of freedom:    12


   Energy is   -264.985004806


 Attempting to Generate Delocalized Internal Coordinates

 12 Hessian modes will be used to form the next step
  Hessian Eigenvalues:
     0.005411    0.102271    0.133785    0.160000    0.236025    0.243278
     0.250000    0.295637    0.314329    0.342134    0.404493    0.419770

 Minimum Search - Taking Simple RFO Step
 Searching for Lamda that Minimizes Along All modes
 Value Taken    Lamda =  -0.13654406
 Calculated Step too Large.  Step scaled by  0.538355
 Step Taken.  Stepsize is  0.300000

                             Maximum     Tolerance    Cnvgd?
         Gradient           0.150827      0.000300      NO
         Displacement       0.143812      0.001200      NO
         Energy change     *********      0.000001      NO


 New Cartesian Coordinates Obtained by Inverse Iteration

 Displacement from previous Coordinates is:  0.468994
 ----------------------------------------------------------------
             Standard Nuclear Orientation (Angstroms)
    I     Atom           X                Y                Z
 ----------------------------------------------------------------
    1      O       0.3342541340    -1.2598273044    -0.0963056363
    2      O      -1.7192446364     0.1631949714    -0.0797700668
    3      C       0.5862300554     0.0673250366     0.3292627250
    4      C      -0.6606625485     0.9747649627    -0.0271936301
    5      C       1.8570456989     0.4113233367    -0.2904647096
    6      H       0.6994094153     0.0677309076     1.4226010933
 ----------------------------------------------------------------
 Molecular Point Group                 C1    NOp =  1
 Largest Abelian Subgroup              C1    NOp =  1
 Nuclear Repulsion Energy =   131.8837195061 hartrees
 There are       18 alpha and       18 beta electrons
 Applying Cartesian multipole field
    Component          Value
    ---------          -----
     (2,0,0)        1.00000E-11
     (0,2,0)        2.00000E-11
     (0,0,2)       -3.00000E-11
 Nucleus-field energy     =     0.0000000028 hartrees
 Requested basis set is 6-311++G(d)
 There are 34 shells and 114 basis functions
 A cutoff of  1.0D-12 yielded    583 shell pairs
 There are      6645 function pairs (      7250 Cartesian)
 Smallest overlap matrix eigenvalue = 7.61E-05
 Guess MOs from SCF MO coefficient file
 Reading MOs from coefficient file
 Reading MOs from coefficient file

 -----------------------------------------------------------------------
  General SCF calculation program by
  Eric Jon Sundstrom, Paul Horn, Yuezhi Mao, Dmitri Zuev, Alec White,
  David Stuck, Shaama M.S., Shane Yost, Joonho Lee, David Small,
  Daniel Levine, Susi Lehtola, Hugh Burton, Evgeny Epifanovsky
 -----------------------------------------------------------------------
 Exchange:     0.2220 Hartree-Fock + 1.0000 wB97X-D + LR-HF
 Correlation:  1.0000 wB97X-D
 Using SG-2 standard quadrature grid
 Dispersion:   Grimme D
 using 32 threads for integral computing
 -------------------------------------------------------
 OpenMP Integral computing Module                
 Release: version 1.0, May 2013, Q-Chem Inc. Pittsburgh 
 -------------------------------------------------------
 using 32 threads for integral computing
 -------------------------------------------------------
 OpenMP Integral computing Module                
 Release: version 1.0, May 2013, Q-Chem Inc. Pittsburgh 
 -------------------------------------------------------
 -------------------------------------------------------
 OpenMP BLAS3 based DFT computing Module                
 Release: version 1.0, May 2013, Q-Chem Inc. Pittsburgh 
 -------------------------------------------------------
 A restricted SCF calculation will be
 performed using Roothaan-Hall, GDM
 SCF converges when RMS gradient is below 1.0e-08
 ---------------------------------------
  Cycle       Energy         DIIS error
 ---------------------------------------
    1    -265.0265569760      2.67e-03  Roothaan Step
 ---------------------------------------
  Cycle       Energy        RMS Gradient
 ---------------------------------------
    1    -265.0444865987      3.99e-02   Normal BFGS step
    2    -265.0387655585      5.96e-02  Line search: overstep
    3    -265.0472555110      1.62e-02   Normal BFGS step
    4    -265.0497687117      1.31e-02   Normal BFGS step
    5    -265.0504549090      1.97e-02   Normal BFGS step
    6    -265.0513181351      6.20e-03   Normal BFGS step
    7    -265.0516024021      5.78e-03   Normal BFGS step
    8    -265.0517419682      2.86e-03   Normal BFGS step
    9    -265.0517785546      2.11e-03   Normal BFGS step
   10    -265.0518102363      1.07e-03   Normal BFGS step
   11    -265.0518230828      4.57e-04   Normal BFGS step
   12    -265.0518252362      3.42e-04   Normal BFGS step
   13    -265.0518260375      1.47e-04   Normal BFGS step
   14    -265.0518262250      8.47e-05   Normal BFGS step
   15    -265.0518262650      2.98e-05   Normal BFGS step
   16    -265.0518262770      1.82e-05   Normal BFGS step
   17    -265.0518262793      7.06e-06   Normal BFGS step
   18    -265.0518262795      2.02e-06   Normal BFGS step
   19    -265.0518262796      6.61e-07   Normal BFGS step
   20    -265.0518262796      2.43e-07   Normal BFGS step
   21    -265.0518262796      9.23e-08   Normal BFGS step
   22    -265.0518262796      4.29e-08   Normal BFGS step
   23    -265.0518262796      5.12e-08   Normal BFGS step
   24    -265.0518262796      4.62e-08   Normal BFGS step
   25    -265.0518262796      1.15e-08   Normal BFGS step
   26    -265.0518262796      9.92e-09  Convergence criterion met
 ---------------------------------------
 SCF time:   CPU 450.04s  wall 16.00s 
 SCF   energy in the final basis set =     -265.0518262796
 
 --------------------------------------------------------------
 
                    Orbital Energies (a.u.)
 --------------------------------------------------------------
 
 Alpha MOs
 -- Occupied --
-19.085 -19.032 -10.217 -10.194 -10.176  -0.927  -0.866  -0.655
 -0.513  -0.431  -0.348  -0.314  -0.272  -0.255  -0.224  -0.153
 -0.148  -0.092
 -- Virtual --
  0.112   0.127   0.165   0.196   0.220   0.230   0.255   0.266
  0.271   0.274   0.278   0.307   0.311   0.316   0.335   0.370
  0.419   0.454   0.456   0.482   0.492   0.508   0.517   0.521
  0.531   0.575   0.579   0.606   0.651   0.751   0.776   0.792
  0.814   0.829   0.832   0.866   0.875   0.892   0.932   1.042
  1.110   1.192   1.260   1.293   1.326   1.363   1.407   1.473
  1.499   1.516   1.584   1.633   1.657   1.713   1.764   1.840
  1.901   1.909   1.967   2.044   2.098   2.141   2.157   2.376
  2.417   2.748   2.937   2.980   2.995   3.037   3.112   3.122
  3.129   3.169   3.191   3.203   3.282   3.426   3.434   3.491
  3.508   3.737   3.981   4.212   4.346   5.285   5.316   5.383
  5.453   5.697   5.862  23.665  23.871  24.044  50.155  50.232
 --------------------------------------------------------------
 
          Ground-State Mulliken Net Atomic Charges

     Atom                 Charge (a.u.)
  ----------------------------------------
      1 O                    -0.435764
      2 O                    -0.260644
      3 C                    -0.303031
      4 C                    -0.221671
      5 C                     0.002599
      6 H                     0.218511
  ----------------------------------------
  Sum of atomic charges =    -1.000000

 -----------------------------------------------------------------
                    Cartesian Multipole Moments
 -----------------------------------------------------------------
    Charge (ESU x 10^10)
                -4.8032
    Dipole Moment (Debye)
         X       0.5639      Y       1.2768      Z       2.0192
       Tot       2.4547
    Quadrupole Moments (Debye-Ang)
        XX     -46.1278     XY       2.3363     YY     -41.4880
        XZ       2.2851     YZ      -0.0989     ZZ     -30.7966
    Octopole Moments (Debye-Ang^2)
       XXX     -21.8727    XXY      -7.2750    XYY      -4.4593
       YYY     -10.1035    XXZ       6.9450    XYZ       0.8558
       YYZ       1.2663    XZZ      -5.6704    YZZ      -2.7395
       ZZZ       4.2169
    Hexadecapole Moments (Debye-Ang^3)
      XXXX    -408.2588   XXXY       5.9552   XXYY     -85.6833
      XYYY      22.2203   YYYY    -180.4597   XXXZ      17.7617
      XXYZ       3.2063   XYYZ       2.6090   YYYZ       0.4088
      XXZZ     -68.4952   XYZZ       3.0342   YYZZ     -36.6687
      XZZZ       7.8483   YZZZ      -0.6620   ZZZZ     -53.5670
 -----------------------------------------------------------------
 Calculating analytic gradient of the SCF energy
 Gradient of SCF Energy
            1           2           3           4           5           6
    1  -0.0450842  -0.1170412  -0.0695596   0.1655749   0.0564152   0.0096948
    2  -0.0379562  -0.1009369   0.0568894   0.0588955   0.0404333  -0.0173250
    3   0.0022987  -0.0041144   0.0231899   0.0021506  -0.0172425  -0.0062823
 Max gradient component =       1.656E-01
 RMS gradient           =       6.343E-02
 Gradient time:  CPU 30.02 s  wall 1.30 s
 Geometry Optimization Parameters
   NAtoms,    NIC,     NZ,  NCons,   NDum,   NFix, NCnnct, MaxDiis
        6      27       0       0       0       0       0       0

 Cartesian Hessian Update
 Hessian Updated using BFGS Update


** GEOMETRY OPTIMIZATION IN DELOCALIZED INTERNAL COORDINATES **
   Searching for a Minimum

   Optimization Cycle:   2

                       Coordinates (Angstroms)
     ATOM                X               Y               Z
      1  O         0.3342541340   -1.2598273044   -0.0963056363
      2  O        -1.7192446364    0.1631949714   -0.0797700668
      3  C         0.5862300554    0.0673250366    0.3292627250
      4  C        -0.6606625485    0.9747649627   -0.0271936301
      5  C         1.8570456989    0.4113233367   -0.2904647096
      6  H         0.6994094153    0.0677309076    1.4226010933
   Point Group: c1    Number of degrees of freedom:    12


   Energy is   -265.051826280

 Hessian Updated using BFGS Update

 12 Hessian modes will be used to form the next step
  Hessian Eigenvalues:
     0.005460    0.091225    0.108656    0.147747    0.218379    0.237092
     0.249572    0.291805    0.309593    0.342075    0.383899    0.450564

 Minimum Search - Taking Simple RFO Step
 Searching for Lamda that Minimizes Along All modes
 Value Taken    Lamda =  -0.15224530
 Calculated Step too Large.  Step scaled by  0.393608
 Step Taken.  Stepsize is  0.300000

                             Maximum     Tolerance    Cnvgd?
         Gradient           0.136702      0.000300      NO
         Displacement       0.180659      0.001200      NO
         Energy change     -0.066821      0.000001      NO


 New Cartesian Coordinates Obtained by Inverse Iteration

 Displacement from previous Coordinates is:  0.327027
 ----------------------------------------------------------------
             Standard Nuclear Orientation (Angstroms)
    I     Atom           X                Y                Z
 ----------------------------------------------------------------
    1      O       0.4487490626    -1.2576209089    -0.1077567826
    2      O      -1.6963377527     0.2328667007    -0.0791125062
    3      C       0.5866767481     0.0458956234     0.3299947077
    4      C      -0.7167903938     0.9659771154    -0.0119625802
    5      C       1.8010883554     0.3546974420    -0.3021453990
    6      H       0.6736460990     0.0826959381     1.4291123359
 ----------------------------------------------------------------
 Molecular Point Group                 C1    NOp =  1
 Largest Abelian Subgroup              C1    NOp =  1
 Nuclear Repulsion Energy =   134.3385659649 hartrees
 There are       18 alpha and       18 beta electrons
 Applying Cartesian multipole field
    Component          Value
    ---------          -----
     (2,0,0)        1.00000E-11
     (0,2,0)        2.00000E-11
     (0,0,2)       -3.00000E-11
 Nucleus-field energy     =     0.0000000028 hartrees
 Requested basis set is 6-311++G(d)
 There are 34 shells and 114 basis functions
 A cutoff of  1.0D-12 yielded    583 shell pairs
 There are      6645 function pairs (      7250 Cartesian)
 Smallest overlap matrix eigenvalue = 7.13E-05
 Guess MOs from SCF MO coefficient file
 Reading MOs from coefficient file
 Reading MOs from coefficient file

 -----------------------------------------------------------------------
  General SCF calculation program by
  Eric Jon Sundstrom, Paul Horn, Yuezhi Mao, Dmitri Zuev, Alec White,
  David Stuck, Shaama M.S., Shane Yost, Joonho Lee, David Small,
  Daniel Levine, Susi Lehtola, Hugh Burton, Evgeny Epifanovsky
 -----------------------------------------------------------------------
 Exchange:     0.2220 Hartree-Fock + 1.0000 wB97X-D + LR-HF
 Correlation:  1.0000 wB97X-D
 Using SG-2 standard quadrature grid
 Dispersion:   Grimme D
 using 32 threads for integral computing
 -------------------------------------------------------
 OpenMP Integral computing Module                
 Release: version 1.0, May 2013, Q-Chem Inc. Pittsburgh 
 -------------------------------------------------------
 using 32 threads for integral computing
 -------------------------------------------------------
 OpenMP Integral computing Module                
 Release: version 1.0, May 2013, Q-Chem Inc. Pittsburgh 
 -------------------------------------------------------
 -------------------------------------------------------
 OpenMP BLAS3 based DFT computing Module                
 Release: version 1.0, May 2013, Q-Chem Inc. Pittsburgh 
 -------------------------------------------------------
 A restricted SCF calculation will be
 performed using Roothaan-Hall, GDM
 SCF converges when RMS gradient is below 1.0e-08
 ---------------------------------------
  Cycle       Energy         DIIS error
 ---------------------------------------
    1    -265.0847580238      2.69e-03  Roothaan Step
 ---------------------------------------
  Cycle       Energy        RMS Gradient
 ---------------------------------------
    1    -265.0983310227      2.29e-02   Normal BFGS step
    2    -265.0969706580      4.03e-02  Line search: overstep
    3    -265.0997763894      7.57e-03   Normal BFGS step
    4    -265.1004966627      5.33e-03   Normal BFGS step
    5    -265.1006256941      4.55e-03   Normal BFGS step
    6    -265.1007264570      1.64e-03   Normal BFGS step
    7    -265.1007572448      1.15e-03   Normal BFGS step
    8    -265.1007650264      6.82e-04   Normal BFGS step
    9    -265.1007678156      4.10e-04   Normal BFGS step
   10    -265.1007683878      1.91e-04   Normal BFGS step
   11    -265.1007688825      9.76e-05   Normal BFGS step
   12    -265.1007690013      4.34e-05   Normal BFGS step
   13    -265.1007690159      1.86e-05   Normal BFGS step
   14    -265.1007690202      1.12e-05   Normal BFGS step
   15    -265.1007690209      2.68e-06   Normal BFGS step
   16    -265.1007690210      1.23e-06   Normal BFGS step
   17    -265.1007690211      6.15e-07   Normal BFGS step
   18    -265.1007690211      2.41e-07   Normal BFGS step
   19    -265.1007690211      9.12e-08   Normal BFGS step
   20    -265.1007690211      3.85e-08   Normal BFGS step
   21    -265.1007690211      1.64e-08   Normal BFGS step
   22    -265.1007690211      2.04e-08   Normal BFGS step
   23    -265.1007690211      1.37e-08   Normal BFGS step
   24    -265.1007690211      2.55e-09  Convergence criterion met
 ---------------------------------------
 SCF time:   CPU 420.16s  wall 15.00s 
 SCF   energy in the final basis set =     -265.1007690211
 
 --------------------------------------------------------------
 
                    Orbital Energies (a.u.)
 --------------------------------------------------------------
 
 Alpha MOs
 -- Occupied --
-19.099 -19.029 -10.188 -10.185 -10.161  -0.987  -0.887  -0.641
 -0.505  -0.429  -0.371  -0.318  -0.300  -0.283  -0.217  -0.166
 -0.149  -0.081
 -- Virtual --
  0.134   0.156   0.169   0.211   0.225   0.228   0.256   0.272
  0.272   0.277   0.281   0.309   0.312   0.317   0.338   0.373
  0.416   0.457   0.468   0.486   0.490   0.507   0.517   0.523
  0.531   0.573   0.602   0.628   0.674   0.755   0.781   0.797
  0.832   0.837   0.846   0.885   0.904   0.930   0.943   1.071
  1.122   1.180   1.264   1.319   1.329   1.353   1.410   1.476
  1.497   1.508   1.578   1.666   1.676   1.716   1.746   1.837
  1.887   1.901   1.990   2.076   2.145   2.188   2.202   2.418
  2.461   2.755   2.949   2.989   3.025   3.050   3.100   3.110
  3.157   3.192   3.236   3.281   3.334   3.461   3.487   3.584
  3.624   3.749   3.972   4.193   4.333   5.275   5.303   5.395
  5.463   5.783   5.922  23.704  24.003  24.214  50.183  50.239
 --------------------------------------------------------------
 
          Ground-State Mulliken Net Atomic Charges

     Atom                 Charge (a.u.)
  ----------------------------------------
      1 O                    -0.440909
      2 O                    -0.174975
      3 C                    -0.265013
      4 C                    -0.246381
      5 C                    -0.065476
      6 H                     0.192754
  ----------------------------------------
  Sum of atomic charges =    -1.000000

 -----------------------------------------------------------------
                    Cartesian Multipole Moments
 -----------------------------------------------------------------
    Charge (ESU x 10^10)
                -4.8032
    Dipole Moment (Debye)
         X      -0.8406      Y       1.1288      Z       2.0250
       Tot       2.4661
    Quadrupole Moments (Debye-Ang)
        XX     -45.6762     XY       2.2932     YY     -41.1201
        XZ       2.5632     YZ      -0.3739     ZZ     -30.9739
    Octopole Moments (Debye-Ang^2)
       XXX     -27.2908    XXY      -6.9436    XYY      -5.4530
       YYY      -9.9815    XXZ       7.0946    XYZ       0.8222
       YYZ       0.9732    XZZ      -7.3707    YZZ      -2.7753
       ZZZ       4.2007
    Hexadecapole Moments (Debye-Ang^3)
      XXXX    -396.6421   XXXY      12.3714   XXYY     -84.0365
      XYYY      29.3029   YYYY    -178.3380   XXXZ      18.7293
      XXYZ       2.2253   XYYZ       2.8763   YYYZ      -1.2956
      XXZZ     -68.2509   XYZZ       5.1541   YYZZ     -36.3620
      XZZZ       9.3709   YZZZ      -1.6432   ZZZZ     -55.6892
 -----------------------------------------------------------------
 Calculating analytic gradient of the SCF energy
 Gradient of SCF Energy
            1           2           3           4           5           6
    1  -0.0290272  -0.0511308  -0.0642507   0.0972903   0.0339375   0.0131809
    2  -0.0244023  -0.0441994   0.0441302   0.0091638   0.0311303  -0.0158226
    3   0.0081022   0.0005279  -0.0023903   0.0002924  -0.0030646  -0.0034676
 Max gradient component =       9.729E-02
 RMS gradient           =       3.672E-02
 Gradient time:  CPU 31.76 s  wall 1.41 s
 Geometry Optimization Parameters
   NAtoms,    NIC,     NZ,  NCons,   NDum,   NFix, NCnnct, MaxDiis
        6      27       0       0       0       0       0       0

 Cartesian Hessian Update
 Hessian Updated using BFGS Update


** GEOMETRY OPTIMIZATION IN DELOCALIZED INTERNAL COORDINATES **
   Searching for a Minimum

   Optimization Cycle:   3

                       Coordinates (Angstroms)
     ATOM                X               Y               Z
      1  O         0.4487490626   -1.2576209089   -0.1077567826
      2  O        -1.6963377527    0.2328667007   -0.0791125062
      3  C         0.5866767481    0.0458956234    0.3299947077
      4  C        -0.7167903938    0.9659771154   -0.0119625802
      5  C         1.8010883554    0.3546974420   -0.3021453990
      6  H         0.6736460990    0.0826959381    1.4291123359
   Point Group: c1    Number of degrees of freedom:    12


   Energy is   -265.100769021

 Hessian Updated using BFGS Update

 12 Hessian modes will be used to form the next step
  Hessian Eigenvalues:
     0.005657    0.107736    0.119348    0.150823    0.234157    0.247798
     0.262117    0.307430    0.342031    0.353623    0.447237    0.504200

 Minimum Search - Taking Simple RFO Step
 Searching for Lamda that Minimizes Along All modes
 Value Taken    Lamda =  -0.05899611
 Calculated Step too Large.  Step scaled by  0.555187
 Step Taken.  Stepsize is  0.300000

                             Maximum     Tolerance    Cnvgd?
         Gradient           0.058838      0.000300      NO
         Displacement       0.178328      0.001200      NO
         Energy change     -0.048943      0.000001      NO


 New Cartesian Coordinates Obtained by Inverse Iteration

 Displacement from previous Coordinates is:  0.339063
 ----------------------------------------------------------------
             Standard Nuclear Orientation (Angstroms)
    I     Atom           X                Y                Z
 ----------------------------------------------------------------
    1      O       0.5644609489    -1.2427692088    -0.1351679640
    2      O      -1.7086070468     0.2805031371    -0.0888029591
    3      C       0.6052173300     0.0271710116     0.3457746128
    4      C      -0.7733476709     0.9748491577     0.0155017251
    5      C       1.7666403310     0.2744305133    -0.3272600316
    6      H       0.6426682264     0.1103272998     1.4480843923
 ----------------------------------------------------------------
 Molecular Point Group                 C1    NOp =  1
 Largest Abelian Subgroup              C1    NOp =  1
 Nuclear Repulsion Energy =   135.3181239147 hartrees
 There are       18 alpha and       18 beta electrons
 Applying Cartesian multipole field
    Component          Value
    ---------          -----
     (2,0,0)        1.00000E-11
     (0,2,0)        2.00000E-11
     (0,0,2)       -3.00000E-11
 Nucleus-field energy     =     0.0000000028 hartrees
 Requested basis set is 6-311++G(d)
 There are 34 shells and 114 basis functions
 A cutoff of  1.0D-12 yielded    584 shell pairs
 There are      6649 function pairs (      7254 Cartesian)
 Smallest overlap matrix eigenvalue = 6.83E-05
 Guess MOs from SCF MO coefficient file
 Reading MOs from coefficient file
 Reading MOs from coefficient file

 -----------------------------------------------------------------------
  General SCF calculation program by
  Eric Jon Sundstrom, Paul Horn, Yuezhi Mao, Dmitri Zuev, Alec White,
  David Stuck, Shaama M.S., Shane Yost, Joonho Lee, David Small,
  Daniel Levine, Susi Lehtola, Hugh Burton, Evgeny Epifanovsky
 -----------------------------------------------------------------------
 Exchange:     0.2220 Hartree-Fock + 1.0000 wB97X-D + LR-HF
 Correlation:  1.0000 wB97X-D
 Using SG-2 standard quadrature grid
 Dispersion:   Grimme D
 using 32 threads for integral computing
 -------------------------------------------------------
 OpenMP Integral computing Module                
 Release: version 1.0, May 2013, Q-Chem Inc. Pittsburgh 
 -------------------------------------------------------
 using 32 threads for integral computing
 -------------------------------------------------------
 OpenMP Integral computing Module                
 Release: version 1.0, May 2013, Q-Chem Inc. Pittsburgh 
 -------------------------------------------------------
 -------------------------------------------------------
 OpenMP BLAS3 based DFT computing Module                
 Release: version 1.0, May 2013, Q-Chem Inc. Pittsburgh 
 -------------------------------------------------------
 A restricted SCF calculation will be
 performed using Roothaan-Hall, GDM
 SCF converges when RMS gradient is below 1.0e-08
 ---------------------------------------
  Cycle       Energy         DIIS error
 ---------------------------------------
    1    -265.1122450377      2.28e-03  Roothaan Step
 ---------------------------------------
  Cycle       Energy        RMS Gradient
 ---------------------------------------
    1    -265.1243979030      9.46e-03   Normal BFGS step
    2    -265.1249713200      1.49e-02   Normal BFGS step
    3    -265.1259792055      4.34e-03   Normal BFGS step
    4    -265.1260363199      3.40e-03   Normal BFGS step
    5    -265.1261073045      1.15e-03   Normal BFGS step
    6    -265.1261171117      4.31e-04   Normal BFGS step
    7    -265.1261231224      2.66e-04   Normal BFGS step
    8    -265.1261234626      1.32e-04   Normal BFGS step
    9    -265.1261236371      4.66e-05   Normal BFGS step
   10    -265.1261236549      2.22e-05   Normal BFGS step
   11    -265.1261236597      1.38e-05   Normal BFGS step
   12    -265.1261236609      8.49e-06   Normal BFGS step
   13    -265.1261236612      2.93e-06   Normal BFGS step
   14    -265.1261236612      1.12e-06   Normal BFGS step
   15    -265.1261236612      2.64e-07   Normal BFGS step
   16    -265.1261236612      1.03e-07   Normal BFGS step
   17    -265.1261236612      3.69e-08   Normal BFGS step
   18    -265.1261236612      2.79e-08   Normal BFGS step
   19    -265.1261236612      2.77e-08   Normal BFGS step
   20    -265.1261236612      3.40e-09  Convergence criterion met
 ---------------------------------------
 SCF time:   CPU 355.83s  wall 13.00s 
 SCF   energy in the final basis set =     -265.1261236612
 
 --------------------------------------------------------------
 
                    Orbital Energies (a.u.)
 --------------------------------------------------------------
 
 Alpha MOs
 -- Occupied --
-19.108 -19.034 -10.183 -10.161 -10.149  -1.023  -0.909  -0.624
 -0.499  -0.434  -0.378  -0.329  -0.319  -0.297  -0.202  -0.182
 -0.159  -0.073
 -- Virtual --
  0.151   0.170   0.190   0.217   0.222   0.235   0.255   0.273
  0.276   0.281   0.286   0.311   0.313   0.318   0.340   0.376
  0.413   0.452   0.470   0.482   0.485   0.489   0.515   0.528
  0.534   0.566   0.615   0.633   0.692   0.757   0.783   0.799
  0.829   0.846   0.854   0.894   0.926   0.952   0.967   1.095
  1.136   1.174   1.290   1.326   1.335   1.378   1.423   1.456
  1.488   1.514   1.564   1.683   1.690   1.704   1.729   1.824
  1.866   1.925   2.006   2.079   2.151   2.214   2.272   2.439
  2.491   2.758   2.947   2.964   3.048   3.069   3.097   3.104
  3.143   3.187   3.263   3.322   3.361   3.514   3.537   3.629
  3.666   3.738   3.974   4.127   4.296   5.272   5.298   5.392
  5.447   5.819   5.941  23.717  24.099  24.376  50.209  50.244
 --------------------------------------------------------------
 
          Ground-State Mulliken Net Atomic Charges

     Atom                 Charge (a.u.)
  ----------------------------------------
      1 O                    -0.406438
      2 O                    -0.127217
      3 C                    -0.215686
      4 C                    -0.280867
      5 C                    -0.137416
      6 H                     0.167624
  ----------------------------------------
  Sum of atomic charges =    -1.000000

 -----------------------------------------------------------------
                    Cartesian Multipole Moments
 -----------------------------------------------------------------
    Charge (ESU x 10^10)
                -4.8032
    Dipole Moment (Debye)
         X      -1.7131      Y       0.8347      Z       2.0450
       Tot       2.7953
    Quadrupole Moments (Debye-Ang)
        XX     -45.6891     XY       2.4315     YY     -40.6350
        XZ       2.7820     YZ      -0.7273     ZZ     -31.1043
    Octopole Moments (Debye-Ang^2)
       XXX     -30.0736    XXY      -6.4086    XYY      -5.9532
       YYY     -10.4138    XXZ       7.4078    XYZ       0.7872
       YYZ       0.6507    XZZ      -8.3355    YZZ      -2.7734
       ZZZ       4.2056
    Hexadecapole Moments (Debye-Ang^3)
      XXXX    -397.6574   XXXY      20.5410   XXYY     -84.1259
      XYYY      36.9402   YYYY    -175.3982   XXXZ      20.3081
      XXYZ       0.9228   XYYZ       3.3710   YYYZ      -3.9147
      XXZZ     -69.7004   XYZZ       7.6849   YYZZ     -36.0250
      XZZZ      10.8263   YZZZ      -3.3351   ZZZZ     -58.4460
 -----------------------------------------------------------------
 Calculating analytic gradient of the SCF energy
 Gradient of SCF Energy
            1           2           3           4           5           6
    1  -0.0193475   0.0084616  -0.0444787   0.0270196   0.0161186   0.0122264
    2  -0.0065232   0.0076687   0.0209250  -0.0350512   0.0231607  -0.0101802
    3   0.0125547   0.0054860  -0.0238448  -0.0026879   0.0075436   0.0009485
 Max gradient component =       4.448E-02
 RMS gradient           =       1.943E-02
 Gradient time:  CPU 31.71 s  wall 1.43 s
 Geometry Optimization Parameters
   NAtoms,    NIC,     NZ,  NCons,   NDum,   NFix, NCnnct, MaxDiis
        6      27       0       0       0       0       0       0

 Cartesian Hessian Update
 Hessian Updated using BFGS Update


** GEOMETRY OPTIMIZATION IN DELOCALIZED INTERNAL COORDINATES **
   Searching for a Minimum

   Optimization Cycle:   4

                       Coordinates (Angstroms)
     ATOM                X               Y               Z
      1  O         0.5644609489   -1.2427692088   -0.1351679640
      2  O        -1.7086070468    0.2805031371   -0.0888029591
      3  C         0.6052173300    0.0271710116    0.3457746128
      4  C        -0.7733476709    0.9748491577    0.0155017251
      5  C         1.7666403310    0.2744305133   -0.3272600316
      6  H         0.6426682264    0.1103272998    1.4480843923
   Point Group: c1    Number of degrees of freedom:    12


   Energy is   -265.126123661

 Hessian Updated using BFGS Update

 12 Hessian modes will be used to form the next step
  Hessian Eigenvalues:
     0.005754    0.084705    0.108547    0.151629    0.232858    0.242979
     0.265071    0.305982    0.341744    0.350432    0.443808    0.862514

 Minimum Search - Taking Simple RFO Step
 Searching for Lamda that Minimizes Along All modes
 Value Taken    Lamda =  -0.03557015
 Calculated Step too Large.  Step scaled by  0.553729
 Step Taken.  Stepsize is  0.300000

                             Maximum     Tolerance    Cnvgd?
         Gradient           0.041268      0.000300      NO
         Displacement       0.200012      0.001200      NO
         Energy change     -0.025355      0.000001      NO


 New Cartesian Coordinates Obtained by Inverse Iteration

 Displacement from previous Coordinates is:  0.344260
 ----------------------------------------------------------------
             Standard Nuclear Orientation (Angstroms)
    I     Atom           X                Y                Z
 ----------------------------------------------------------------
    1      O       0.6783048982    -1.2198630229    -0.1656466412
    2      O      -1.7403062337     0.3057095497    -0.1033166580
    3      C       0.6263256308     0.0175991616     0.3698059967
    4      C      -0.8204534781     1.0048933561     0.0435082016
    5      C       1.7376763858     0.1822232410    -0.3556742018
    6      H       0.6154849156     0.1339496252     1.4694530781
 ----------------------------------------------------------------
 Molecular Point Group                 C1    NOp =  1
 Largest Abelian Subgroup              C1    NOp =  1
 Nuclear Repulsion Energy =   135.2419890936 hartrees
 There are       18 alpha and       18 beta electrons
 Applying Cartesian multipole field
    Component          Value
    ---------          -----
     (2,0,0)        1.00000E-11
     (0,2,0)        2.00000E-11
     (0,0,2)       -3.00000E-11
 Nucleus-field energy     =     0.0000000028 hartrees
 Requested basis set is 6-311++G(d)
 There are 34 shells and 114 basis functions
 A cutoff of  1.0D-12 yielded    580 shell pairs
 There are      6634 function pairs (      7237 Cartesian)
 Smallest overlap matrix eigenvalue = 6.44E-05
 Guess MOs from SCF MO coefficient file
 Reading MOs from coefficient file
 Reading MOs from coefficient file

 -----------------------------------------------------------------------
  General SCF calculation program by
  Eric Jon Sundstrom, Paul Horn, Yuezhi Mao, Dmitri Zuev, Alec White,
  David Stuck, Shaama M.S., Shane Yost, Joonho Lee, David Small,
  Daniel Levine, Susi Lehtola, Hugh Burton, Evgeny Epifanovsky
 -----------------------------------------------------------------------
 Exchange:     0.2220 Hartree-Fock + 1.0000 wB97X-D + LR-HF
 Correlation:  1.0000 wB97X-D
 Using SG-2 standard quadrature grid
 Dispersion:   Grimme D
 using 32 threads for integral computing
 -------------------------------------------------------
 OpenMP Integral computing Module                
 Release: version 1.0, May 2013, Q-Chem Inc. Pittsburgh 
 -------------------------------------------------------
 using 32 threads for integral computing
 -------------------------------------------------------
 OpenMP Integral computing Module                
 Release: version 1.0, May 2013, Q-Chem Inc. Pittsburgh 
 -------------------------------------------------------
 -------------------------------------------------------
 OpenMP BLAS3 based DFT computing Module                
 Release: version 1.0, May 2013, Q-Chem Inc. Pittsburgh 
 -------------------------------------------------------
 A restricted SCF calculation will be
 performed using Roothaan-Hall, GDM
 SCF converges when RMS gradient is below 1.0e-08
 ---------------------------------------
  Cycle       Energy         DIIS error
 ---------------------------------------
    1    -265.1277893780      2.17e-03  Roothaan Step
 ---------------------------------------
  Cycle       Energy        RMS Gradient
 ---------------------------------------
    1    -265.1412235624      9.35e-03   Normal BFGS step
    2    -265.1424413112      3.79e-03   Normal BFGS step
    3    -265.1427195379      2.82e-03   Normal BFGS step
    4    -265.1428572364      2.48e-03   Normal BFGS step
    5    -265.1428682456      1.56e-03   Normal BFGS step
    6    -265.1428816121      6.02e-04   Normal BFGS step
    7    -265.1428829775      2.46e-04   Normal BFGS step
    8    -265.1428836787      7.22e-05   Normal BFGS step
    9    -265.1428837151      4.25e-05   Normal BFGS step
   10    -265.1428837489      1.36e-05   Normal BFGS step
   11    -265.1428837520      7.47e-06   Normal BFGS step
   12    -265.1428837535      3.14e-06   Normal BFGS step
   13    -265.1428837536      1.67e-06   Normal BFGS step
   14    -265.1428837537      4.87e-07   Normal BFGS step
   15    -265.1428837537      1.49e-07   Normal BFGS step
   16    -265.1428837537      3.96e-08   Normal BFGS step
   17    -265.1428837537      1.15e-08   Normal BFGS step
   18    -265.1428837537      3.98e-09  Convergence criterion met
 ---------------------------------------
 SCF time:   CPU 319.02s  wall 11.00s 
 SCF   energy in the final basis set =     -265.1428837537
 
 --------------------------------------------------------------
 
                    Orbital Energies (a.u.)
 --------------------------------------------------------------
 
 Alpha MOs
 -- Occupied --
-19.108 -19.047 -10.181 -10.150 -10.142  -1.024  -0.939  -0.609
 -0.496  -0.437  -0.374  -0.331  -0.323  -0.299  -0.203  -0.188
 -0.180  -0.068
 -- Virtual --
  0.160   0.174   0.214   0.220   0.223   0.239   0.257   0.273
  0.278   0.283   0.299   0.313   0.317   0.319   0.340   0.375
  0.415   0.437   0.466   0.472   0.477   0.481   0.509   0.521
  0.540   0.561   0.617   0.638   0.695   0.758   0.785   0.801
  0.821   0.850   0.851   0.897   0.928   0.961   0.983   1.102
  1.149   1.164   1.317   1.326   1.335   1.401   1.417   1.449
  1.488   1.519   1.570   1.686   1.693   1.707   1.715   1.802
  1.846   1.953   2.019   2.082   2.142   2.216   2.301   2.428
  2.502   2.762   2.916   2.954   2.990   3.083   3.098   3.121
  3.160   3.169   3.256   3.332   3.374   3.520   3.623   3.631
  3.701   3.733   3.966   4.057   4.276   5.272   5.301   5.379
  5.418   5.799   5.926  23.723  24.113  24.502  50.212  50.240
 --------------------------------------------------------------
 
          Ground-State Mulliken Net Atomic Charges

     Atom                 Charge (a.u.)
  ----------------------------------------
      1 O                    -0.340742
      2 O                    -0.126301
      3 C                    -0.201122
      4 C                    -0.314476
      5 C                    -0.168930
      6 H                     0.151570
  ----------------------------------------
  Sum of atomic charges =    -1.000000

 -----------------------------------------------------------------
                    Cartesian Multipole Moments
 -----------------------------------------------------------------
    Charge (ESU x 10^10)
                -4.8032
    Dipole Moment (Debye)
         X      -1.8115      Y       0.3512      Z       2.0150
       Tot       2.7322
    Quadrupole Moments (Debye-Ang)
        XX     -46.0532     XY       2.6541     YY     -40.2529
        XZ       2.8400     YZ      -1.0355     ZZ     -31.0996
    Octopole Moments (Debye-Ang^2)
       XXX     -29.2120    XXY      -6.3034    XYY      -5.6781
       YYY     -11.9235    XXZ       7.6500    XYZ       0.7579
       YYZ       0.3119    XZZ      -8.3427    YZZ      -2.9477
       ZZZ       3.9724
    Hexadecapole Moments (Debye-Ang^3)
      XXXX    -404.8025   XXXY      29.2512   XXYY     -85.4017
      XYYY      44.7552   YYYY    -174.0430   XXXZ      21.5595
      XXYZ      -0.2728   XYYZ       3.8396   YYYZ      -6.6719
      XXZZ     -71.6353   XYZZ      10.3124   YYZZ     -35.9491
      XZZZ      11.5714   YZZZ      -5.1941   ZZZZ     -60.9994
 -----------------------------------------------------------------
 Calculating analytic gradient of the SCF energy
 Gradient of SCF Energy
            1           2           3           4           5           6
    1  -0.0161837   0.0123121  -0.0145886   0.0098737   0.0009208   0.0076657
    2   0.0119273   0.0147628  -0.0074185  -0.0333833   0.0182610  -0.0041493
    3   0.0177000   0.0065001  -0.0405489  -0.0031261   0.0154559   0.0040190
 Max gradient component =       4.055E-02
 RMS gradient           =       1.655E-02
 Gradient time:  CPU 31.70 s  wall 1.40 s
 Geometry Optimization Parameters
   NAtoms,    NIC,     NZ,  NCons,   NDum,   NFix, NCnnct, MaxDiis
        6      27       0       0       0       0       0       0

 Cartesian Hessian Update
 Hessian Updated using BFGS Update


** GEOMETRY OPTIMIZATION IN DELOCALIZED INTERNAL COORDINATES **
   Searching for a Minimum

   Optimization Cycle:   5

                       Coordinates (Angstroms)
     ATOM                X               Y               Z
      1  O         0.6783048982   -1.2198630229   -0.1656466412
      2  O        -1.7403062337    0.3057095497   -0.1033166580
      3  C         0.6263256308    0.0175991616    0.3698059967
      4  C        -0.8204534781    1.0048933561    0.0435082016
      5  C         1.7376763858    0.1822232410   -0.3556742018
      6  H         0.6154849156    0.1339496252    1.4694530781
   Point Group: c1    Number of degrees of freedom:    12


   Energy is   -265.142883754

 Hessian Updated using BFGS Update

 12 Hessian modes will be used to form the next step
  Hessian Eigenvalues:
     0.005766    0.047537    0.109564    0.161145    0.230284    0.240364
     0.275695    0.306981    0.341683    0.395665    0.487800    0.906209

 Minimum Search - Taking Simple RFO Step
 Searching for Lamda that Minimizes Along All modes
 Value Taken    Lamda =  -0.03179107
 Calculated Step too Large.  Step scaled by  0.476759
 Step Taken.  Stepsize is  0.300000

                             Maximum     Tolerance    Cnvgd?
         Gradient           0.026751      0.000300      NO
         Displacement       0.205545      0.001200      NO
         Energy change     -0.016760      0.000001      NO


 New Cartesian Coordinates Obtained by Inverse Iteration

 Displacement from previous Coordinates is:  0.341691
 ----------------------------------------------------------------
             Standard Nuclear Orientation (Angstroms)
    I     Atom           X                Y                Z
 ----------------------------------------------------------------
    1      O       0.7895573431    -1.1961031528    -0.1957331047
    2      O      -1.7617314966     0.3214143270    -0.1178741820
    3      C       0.6368092024     0.0211369198     0.4004668885
    4      C      -0.8695439633     1.0442137791     0.0654076183
    5      C       1.7076806641     0.0860462895    -0.3879884771
    6      H       0.5942603689     0.1478037479     1.4938510326
 ----------------------------------------------------------------
 Molecular Point Group                 C1    NOp =  1
 Largest Abelian Subgroup              C1    NOp =  1
 Nuclear Repulsion Energy =   135.1112999850 hartrees
 There are       18 alpha and       18 beta electrons
 Applying Cartesian multipole field
    Component          Value
    ---------          -----
     (2,0,0)        1.00000E-11
     (0,2,0)        2.00000E-11
     (0,0,2)       -3.00000E-11
 Nucleus-field energy     =     0.0000000028 hartrees
 Requested basis set is 6-311++G(d)
 There are 34 shells and 114 basis functions
 A cutoff of  1.0D-12 yielded    578 shell pairs
 There are      6629 function pairs (      7232 Cartesian)
 Smallest overlap matrix eigenvalue = 6.20E-05
 Guess MOs from SCF MO coefficient file
 Reading MOs from coefficient file
 Reading MOs from coefficient file

 -----------------------------------------------------------------------
  General SCF calculation program by
  Eric Jon Sundstrom, Paul Horn, Yuezhi Mao, Dmitri Zuev, Alec White,
  David Stuck, Shaama M.S., Shane Yost, Joonho Lee, David Small,
  Daniel Levine, Susi Lehtola, Hugh Burton, Evgeny Epifanovsky
 -----------------------------------------------------------------------
 Exchange:     0.2220 Hartree-Fock + 1.0000 wB97X-D + LR-HF
 Correlation:  1.0000 wB97X-D
 Using SG-2 standard quadrature grid
 Dispersion:   Grimme D
 using 32 threads for integral computing
 -------------------------------------------------------
 OpenMP Integral computing Module                
 Release: version 1.0, May 2013, Q-Chem Inc. Pittsburgh 
 -------------------------------------------------------
 using 32 threads for integral computing
 -------------------------------------------------------
 OpenMP Integral computing Module                
 Release: version 1.0, May 2013, Q-Chem Inc. Pittsburgh 
 -------------------------------------------------------
 -------------------------------------------------------
 OpenMP BLAS3 based DFT computing Module                
 Release: version 1.0, May 2013, Q-Chem Inc. Pittsburgh 
 -------------------------------------------------------
 A restricted SCF calculation will be
 performed using Roothaan-Hall, GDM
 SCF converges when RMS gradient is below 1.0e-08
 ---------------------------------------
  Cycle       Energy         DIIS error
 ---------------------------------------
    1    -265.1343409644      2.64e-03  Roothaan Step
 ---------------------------------------
  Cycle       Energy        RMS Gradient
 ---------------------------------------
    1    -265.1537631573      1.51e-02   Normal BFGS step
    2    -265.1554539843      4.46e-03   Normal BFGS step
    3    -265.1558172503      7.55e-03   Normal BFGS step
    4    -265.1560374330      1.17e-03   Normal BFGS step
    5    -265.1560535422      5.86e-04   Normal BFGS step
    6    -265.1560586403      3.97e-04   Normal BFGS step
    7    -265.1560594586      1.81e-04   Normal BFGS step
    8    -265.1560599438      4.52e-05   Normal BFGS step
    9    -265.1560599571      4.95e-05   Normal BFGS step
   10    -265.1560599718      9.52e-06   Normal BFGS step
   11    -265.1560599728      1.06e-05   Normal BFGS step
   12    -265.1560599735      2.02e-06   Normal BFGS step
   13    -265.1560599735      9.63e-07   Normal BFGS step
   14    -265.1560599735      2.18e-07   Normal BFGS step
   15    -265.1560599735      1.12e-07   Normal BFGS step
   16    -265.1560599735      2.35e-08   Normal BFGS step
   17    -265.1560599735      5.73e-09  Convergence criterion met
 ---------------------------------------
 SCF time:   CPU 304.24s  wall 11.00s 
 SCF   energy in the final basis set =     -265.1560599735
 
 --------------------------------------------------------------
 
                    Orbital Energies (a.u.)
 --------------------------------------------------------------
 
 Alpha MOs
 -- Occupied --
-19.101 -19.065 -10.175 -10.148 -10.136  -1.018  -0.975  -0.593
 -0.492  -0.437  -0.369  -0.337  -0.324  -0.297  -0.224  -0.207
 -0.174  -0.063
 -- Virtual --
  0.165   0.181   0.220   0.225   0.230   0.241   0.259   0.271
  0.282   0.284   0.307   0.314   0.319   0.338   0.355   0.378
  0.414   0.420   0.458   0.465   0.466   0.477   0.504   0.512
  0.539   0.557   0.616   0.644   0.693   0.760   0.786   0.802
  0.817   0.849   0.852   0.895   0.926   0.968   0.992   1.107
  1.149   1.164   1.320   1.332   1.336   1.385   1.399   1.432
  1.476   1.529   1.579   1.680   1.700   1.713   1.753   1.813
  1.833   1.948   2.035   2.074   2.128   2.214   2.295   2.411
  2.485   2.771   2.900   2.961   2.977   3.061   3.096   3.110
  3.135   3.232   3.266   3.336   3.396   3.493   3.576   3.636
  3.677   3.837   3.990   4.055   4.266   5.276   5.305   5.365
  5.443   5.764   5.917  23.730  24.126  24.528  50.207  50.222
 --------------------------------------------------------------
 
          Ground-State Mulliken Net Atomic Charges

     Atom                 Charge (a.u.)
  ----------------------------------------
      1 O                    -0.250905
      2 O                    -0.131886
      3 C                    -0.203339
      4 C                    -0.357682
      5 C                    -0.193782
      6 H                     0.137594
  ----------------------------------------
  Sum of atomic charges =    -1.000000

 -----------------------------------------------------------------
                    Cartesian Multipole Moments
 -----------------------------------------------------------------
    Charge (ESU x 10^10)
                -4.8032
    Dipole Moment (Debye)
         X      -1.5845      Y      -0.3045      Z       1.9041
       Tot       2.4958
    Quadrupole Moments (Debye-Ang)
        XX     -46.4362     XY       2.8246     YY     -40.0615
        XZ       2.8442     YZ      -1.2258     ZZ     -31.1394
    Octopole Moments (Debye-Ang^2)
       XXX     -27.4887    XXY      -6.7120    XYY      -4.7900
       YYY     -14.4761    XXZ       7.9218    XYZ       0.8225
       YYZ      -0.0362    XZZ      -8.2048    YZZ      -3.3804
       ZZZ       3.5109
    Hexadecapole Moments (Debye-Ang^3)
      XXXX    -412.5975   XXXY      37.5776   XXYY     -87.1302
      XYYY      52.8346   YYYY    -176.0258   XXXZ      23.1161
      XXYZ      -1.1741   XYYZ       4.4262   YYYZ      -9.4234
      XXZZ     -74.0038   XYZZ      12.7663   YYZZ     -36.5826
      XZZZ      12.2260   YZZZ      -6.9683   ZZZZ     -64.9521
 -----------------------------------------------------------------
 Calculating analytic gradient of the SCF energy
 Gradient of SCF Energy
            1           2           3           4           5           6
    1  -0.0152127   0.0197452   0.0065874  -0.0074576  -0.0046703   0.0010079
    2   0.0226555   0.0190625  -0.0321919  -0.0272305   0.0167070   0.0009974
    3   0.0206898   0.0084287  -0.0431619  -0.0049439   0.0145675   0.0044198
 Max gradient component =       4.316E-02
 RMS gradient           =       1.870E-02
 Gradient time:  CPU 31.18 s  wall 1.38 s
 Geometry Optimization Parameters
   NAtoms,    NIC,     NZ,  NCons,   NDum,   NFix, NCnnct, MaxDiis
        6      27       0       0       0       0       0       0

 Cartesian Hessian Update
 Hessian Updated using BFGS Update


** GEOMETRY OPTIMIZATION IN DELOCALIZED INTERNAL COORDINATES **
   Searching for a Minimum

   Optimization Cycle:   6

                       Coordinates (Angstroms)
     ATOM                X               Y               Z
      1  O         0.7895573431   -1.1961031528   -0.1957331047
      2  O        -1.7617314966    0.3214143270   -0.1178741820
      3  C         0.6368092024    0.0211369198    0.4004668885
      4  C        -0.8695439633    1.0442137791    0.0654076183
      5  C         1.7076806641    0.0860462895   -0.3879884771
      6  H         0.5942603689    0.1478037479    1.4938510326
   Point Group: c1    Number of degrees of freedom:    12


   Energy is   -265.156059974

 Hessian Updated using BFGS Update

 12 Hessian modes will be used to form the next step
  Hessian Eigenvalues:
     0.005768    0.035757    0.110324    0.178500    0.228547    0.250015
     0.278127    0.307625    0.341744    0.393614    0.524165    0.931187

 Minimum Search - Taking Simple RFO Step
 Searching for Lamda that Minimizes Along All modes
 Value Taken    Lamda =  -0.02770652
 Calculated Step too Large.  Step scaled by  0.463290
 Step Taken.  Stepsize is  0.300000

                             Maximum     Tolerance    Cnvgd?
         Gradient           0.029233      0.000300      NO
         Displacement       0.208706      0.001200      NO
         Energy change     -0.013176      0.000001      NO


 New Cartesian Coordinates Obtained by Inverse Iteration

 Displacement from previous Coordinates is:  0.355443
 ----------------------------------------------------------------
             Standard Nuclear Orientation (Angstroms)
    I     Atom           X                Y                Z
 ----------------------------------------------------------------
    1      O       0.9013185706    -1.1645864060    -0.2276844242
    2      O      -1.7961003244     0.3370162747    -0.1391084015
    3      C       0.6436698256     0.0375277546     0.4326001107
    4      C      -0.9195430063     1.0799650610     0.0820921115
    5      C       1.6730294495    -0.0195152707    -0.4103032045
    6      H       0.5946576036     0.1541044970     1.5205335835
 ----------------------------------------------------------------
 Molecular Point Group                 C1    NOp =  1
 Largest Abelian Subgroup              C1    NOp =  1
 Nuclear Repulsion Energy =   135.1969937349 hartrees
 There are       18 alpha and       18 beta electrons
 Applying Cartesian multipole field
    Component          Value
    ---------          -----
     (2,0,0)        1.00000E-11
     (0,2,0)        2.00000E-11
     (0,0,2)       -3.00000E-11
 Nucleus-field energy     =     0.0000000028 hartrees
 Requested basis set is 6-311++G(d)
 There are 34 shells and 114 basis functions
 A cutoff of  1.0D-12 yielded    575 shell pairs
 There are      6588 function pairs (      7183 Cartesian)
 Smallest overlap matrix eigenvalue = 5.99E-05
 Guess MOs from SCF MO coefficient file
 Reading MOs from coefficient file
 Reading MOs from coefficient file

 -----------------------------------------------------------------------
  General SCF calculation program by
  Eric Jon Sundstrom, Paul Horn, Yuezhi Mao, Dmitri Zuev, Alec White,
  David Stuck, Shaama M.S., Shane Yost, Joonho Lee, David Small,
  Daniel Levine, Susi Lehtola, Hugh Burton, Evgeny Epifanovsky
 -----------------------------------------------------------------------
 Exchange:     0.2220 Hartree-Fock + 1.0000 wB97X-D + LR-HF
 Correlation:  1.0000 wB97X-D
 Using SG-2 standard quadrature grid
 Dispersion:   Grimme D
 using 32 threads for integral computing
 -------------------------------------------------------
 OpenMP Integral computing Module                
 Release: version 1.0, May 2013, Q-Chem Inc. Pittsburgh 
 -------------------------------------------------------
 using 32 threads for integral computing
 -------------------------------------------------------
 OpenMP Integral computing Module                
 Release: version 1.0, May 2013, Q-Chem Inc. Pittsburgh 
 -------------------------------------------------------
 -------------------------------------------------------
 OpenMP BLAS3 based DFT computing Module                
 Release: version 1.0, May 2013, Q-Chem Inc. Pittsburgh 
 -------------------------------------------------------
 A restricted SCF calculation will be
 performed using Roothaan-Hall, GDM
 SCF converges when RMS gradient is below 1.0e-08
 ---------------------------------------
  Cycle       Energy         DIIS error
 ---------------------------------------
    1    -265.1311297714      3.47e-03  Roothaan Step
 ---------------------------------------
  Cycle       Energy        RMS Gradient
 ---------------------------------------
    1    -265.1616107461      2.49e-02   Normal BFGS step
    2    -265.1640339562      7.70e-03   Normal BFGS step
    3    -265.1649081306      7.75e-03   Normal BFGS step
    4    -265.1651141955      1.90e-03   Normal BFGS step
    5    -265.1651416660      1.61e-03   Normal BFGS step
    6    -265.1651596734      3.09e-04   Normal BFGS step
    7    -265.1651611820      1.85e-04   Normal BFGS step
    8    -265.1651615657      6.90e-05   Normal BFGS step
    9    -265.1651615861      9.27e-05   Normal BFGS step
   10    -265.1651616266      1.30e-05   Normal BFGS step
   11    -265.1651616282      1.11e-05   Normal BFGS step
   12    -265.1651616292      2.59e-06   Normal BFGS step
   13    -265.1651616293      1.15e-06   Normal BFGS step
   14    -265.1651616293      4.25e-07   Normal BFGS step
   15    -265.1651616293      2.09e-07   Normal BFGS step
   16    -265.1651616293      6.04e-08   Normal BFGS step
   17    -265.1651616293      1.79e-08   Normal BFGS step
   18    -265.1651616293      1.36e-08   Normal BFGS step
   19    -265.1651616293      3.33e-09  Convergence criterion met
 ---------------------------------------
 SCF time:   CPU 341.15s  wall 12.00s 
 SCF   energy in the final basis set =     -265.1651616293
 
 --------------------------------------------------------------
 
                    Orbital Energies (a.u.)
 --------------------------------------------------------------
 
 Alpha MOs
 -- Occupied --
-19.096 -19.087 -10.167 -10.150 -10.130  -1.036  -1.001  -0.586
 -0.491  -0.433  -0.376  -0.356  -0.314  -0.296  -0.256  -0.231
 -0.155  -0.059
 -- Virtual --
  0.167   0.192   0.222   0.227   0.233   0.241   0.258   0.268
  0.284   0.285   0.308   0.313   0.322   0.337   0.363   0.392
  0.427   0.437   0.452   0.456   0.460   0.473   0.500   0.505
  0.529   0.557   0.615   0.651   0.691   0.755   0.787   0.799
  0.820   0.850   0.871   0.892   0.924   0.974   0.993   1.117
  1.137   1.174   1.304   1.327   1.335   1.351   1.383   1.418
  1.462   1.543   1.583   1.661   1.706   1.720   1.735   1.797
  1.901   1.936   2.043   2.084   2.098   2.217   2.300   2.401
  2.480   2.788   2.908   2.976   3.018   3.044   3.079   3.113
  3.120   3.258   3.324   3.386   3.442   3.471   3.540   3.637
  3.665   3.796   4.011   4.086   4.275   5.282   5.287   5.343
  5.546   5.745   5.909  23.771  24.121  24.543  50.166  50.225
 --------------------------------------------------------------
 
          Ground-State Mulliken Net Atomic Charges

     Atom                 Charge (a.u.)
  ----------------------------------------
      1 O                    -0.111263
      2 O                    -0.154129
      3 C                    -0.179521
      4 C                    -0.404964
      5 C                    -0.271357
      6 H                     0.121234
  ----------------------------------------
  Sum of atomic charges =    -1.000000

 -----------------------------------------------------------------
                    Cartesian Multipole Moments
 -----------------------------------------------------------------
    Charge (ESU x 10^10)
                -4.8032
    Dipole Moment (Debye)
         X      -0.9996      Y      -1.2294      Z       1.7147
       Tot       2.3347
    Quadrupole Moments (Debye-Ang)
        XX     -47.2082     XY       2.9531     YY     -39.7353
        XZ       2.8683     YZ      -1.2569     ZZ     -31.3327
    Octopole Moments (Debye-Ang^2)
       XXX     -24.5804    XXY      -7.6614    XYY      -2.9206
       YYY     -18.2995    XXZ       8.5639    XYZ       0.8801
       YYZ      -0.4532    XZZ      -7.9304    YZZ      -4.0716
       ZZZ       2.7683
    Hexadecapole Moments (Debye-Ang^3)
      XXXX    -427.6433   XXXY      46.5309   XXYY     -89.1908
      XYYY      60.9923   YYYY    -178.7230   XXXZ      24.6532
      XXYZ      -1.9980   XYYZ       4.9739   YYYZ     -12.1089
      XXZZ     -77.6559   XYZZ      15.2557   YYZZ     -37.5836
      XZZZ      12.3354   YZZZ      -8.5283   ZZZZ     -70.6624
 -----------------------------------------------------------------
 Calculating analytic gradient of the SCF energy
 Gradient of SCF Energy
            1           2           3           4           5           6
    1  -0.0035295   0.0171606   0.0408234  -0.0142913  -0.0332307  -0.0069325
    2   0.0455566   0.0140315  -0.0519887  -0.0125395  -0.0012146   0.0061548
    3   0.0178093   0.0079973  -0.0459003  -0.0055255   0.0234814   0.0021377
 Max gradient component =       5.199E-02
 RMS gradient           =       2.536E-02
 Gradient time:  CPU 29.65 s  wall 1.32 s
 Geometry Optimization Parameters
   NAtoms,    NIC,     NZ,  NCons,   NDum,   NFix, NCnnct, MaxDiis
        6      27       0       0       0       0       0       0

 Cartesian Hessian Update
 Hessian Updated using BFGS Update


** GEOMETRY OPTIMIZATION IN DELOCALIZED INTERNAL COORDINATES **
   Searching for a Minimum

   Optimization Cycle:   7

                       Coordinates (Angstroms)
     ATOM                X               Y               Z
      1  O         0.9013185706   -1.1645864060   -0.2276844242
      2  O        -1.7961003244    0.3370162747   -0.1391084015
      3  C         0.6436698256    0.0375277546    0.4326001107
      4  C        -0.9195430063    1.0799650610    0.0820921115
      5  C         1.6730294495   -0.0195152707   -0.4103032045
      6  H         0.5946576036    0.1541044970    1.5205335835
   Point Group: c1    Number of degrees of freedom:    12


   Energy is   -265.165161629

 Hessian Updated using BFGS Update

 12 Hessian modes will be used to form the next step
  Hessian Eigenvalues:
     0.005776    0.094458    0.113662    0.178016    0.226525    0.249330
     0.296033    0.313307    0.344374    0.410254    0.618959    0.889127

 Minimum Search - Taking Simple RFO Step
 Searching for Lamda that Minimizes Along All modes
 Value Taken    Lamda =  -0.01038173
 Calculated Step too Large.  Step scaled by  0.845776
 Step Taken.  Stepsize is  0.300000

                             Maximum     Tolerance    Cnvgd?
         Gradient           0.041710      0.000300      NO
         Displacement       0.250490      0.001200      NO
         Energy change     -0.009102      0.000001      NO


 New Cartesian Coordinates Obtained by Inverse Iteration

 Displacement from previous Coordinates is:  0.262372
 ----------------------------------------------------------------
             Standard Nuclear Orientation (Angstroms)
    I     Atom           X                Y                Z
 ----------------------------------------------------------------
    1      O       0.9444856184    -1.1926153761    -0.2250922512
    2      O      -1.8257572325     0.3589805459    -0.2072816136
    3      C       0.6464431973     0.0490610594     0.4566148369
    4      C      -0.9721205186     1.0925869369     0.1378677440
    5      C       1.6747450174    -0.0493227292    -0.4451046624
    6      H       0.6292360367     0.1658214737     1.5411257218
 ----------------------------------------------------------------
 Molecular Point Group                 C1    NOp =  1
 Largest Abelian Subgroup              C1    NOp =  1
 Nuclear Repulsion Energy =   132.8649783361 hartrees
 There are       18 alpha and       18 beta electrons
 Applying Cartesian multipole field
    Component          Value
    ---------          -----
     (2,0,0)        1.00000E-11
     (0,2,0)        2.00000E-11
     (0,0,2)       -3.00000E-11
 Nucleus-field energy     =     0.0000000029 hartrees
 Requested basis set is 6-311++G(d)
 There are 34 shells and 114 basis functions
 A cutoff of  1.0D-12 yielded    573 shell pairs
 There are      6568 function pairs (      7163 Cartesian)
 Smallest overlap matrix eigenvalue = 7.00E-05
 Guess MOs from SCF MO coefficient file
 Reading MOs from coefficient file
 Reading MOs from coefficient file

 -----------------------------------------------------------------------
  General SCF calculation program by
  Eric Jon Sundstrom, Paul Horn, Yuezhi Mao, Dmitri Zuev, Alec White,
  David Stuck, Shaama M.S., Shane Yost, Joonho Lee, David Small,
  Daniel Levine, Susi Lehtola, Hugh Burton, Evgeny Epifanovsky
 -----------------------------------------------------------------------
 Exchange:     0.2220 Hartree-Fock + 1.0000 wB97X-D + LR-HF
 Correlation:  1.0000 wB97X-D
 Using SG-2 standard quadrature grid
 Dispersion:   Grimme D
 using 32 threads for integral computing
 -------------------------------------------------------
 OpenMP Integral computing Module                
 Release: version 1.0, May 2013, Q-Chem Inc. Pittsburgh 
 -------------------------------------------------------
 using 32 threads for integral computing
 -------------------------------------------------------
 OpenMP Integral computing Module                
 Release: version 1.0, May 2013, Q-Chem Inc. Pittsburgh 
 -------------------------------------------------------
 -------------------------------------------------------
 OpenMP BLAS3 based DFT computing Module                
 Release: version 1.0, May 2013, Q-Chem Inc. Pittsburgh 
 -------------------------------------------------------
 A restricted SCF calculation will be
 performed using Roothaan-Hall, GDM
 SCF converges when RMS gradient is below 1.0e-08
 ---------------------------------------
  Cycle       Energy         DIIS error
 ---------------------------------------
    1    -265.1567818039      2.28e-03  Roothaan Step
 ---------------------------------------
  Cycle       Energy        RMS Gradient
 ---------------------------------------
    1    -265.1696189919      8.04e-03   Normal BFGS step
    2    -265.1706485365      4.12e-03   Normal BFGS step
    3    -265.1708393941      4.30e-03   Normal BFGS step
    4    -265.1709611195      1.23e-03   Normal BFGS step
    5    -265.1709691850      7.30e-04   Normal BFGS step
    6    -265.1709767133      2.70e-04   Normal BFGS step
    7    -265.1709771540      1.27e-04   Normal BFGS step
    8    -265.1709774394      4.63e-05   Normal BFGS step
    9    -265.1709774565      3.74e-05   Normal BFGS step
   10    -265.1709774744      1.10e-05   Normal BFGS step
   11    -265.1709774751      3.50e-06   Normal BFGS step
   12    -265.1709774754      2.15e-06   Normal BFGS step
   13    -265.1709774755      6.06e-07   Normal BFGS step
   14    -265.1709774755      2.14e-07   Normal BFGS step
   15    -265.1709774755      5.83e-08   Normal BFGS step
   16    -265.1709774755      2.50e-08   Normal BFGS step
   17    -265.1709774755      7.99e-09  Convergence criterion met
 ---------------------------------------
 SCF time:   CPU 307.90s  wall 11.00s 
[...]
    I     Atom           X                Y                Z
 ----------------------------------------------------------------
    1      O       2.4178453689    -1.3093347960    -0.2425620052
    2      O      -2.1250836127     1.3116597838    -0.2479754067
    3      C      -0.0915072669     0.3340411284     0.7447725276
    4      C      -1.1435355814     0.8634674331     0.3027213828
    5      C       1.5636941297    -1.0309178029    -0.9491790497
    6      H       0.4756190810     0.2555961641     1.6503523268
 ----------------------------------------------------------------
 Molecular Point Group                 C1    NOp =  1
 Largest Abelian Subgroup              C1    NOp =  1
 Nuclear Repulsion Energy =   115.3129437860 hartrees
 There are       18 alpha and       18 beta electrons
 Applying Cartesian multipole field
    Component          Value
    ---------          -----
     (2,0,0)        1.00000E-11
     (0,2,0)        2.00000E-11
     (0,0,2)       -3.00000E-11
 Nucleus-field energy     =     0.0000000052 hartrees
 Requested basis set is 6-311++G(d)
 There are 34 shells and 114 basis functions
 A cutoff of  1.0D-12 yielded    542 shell pairs
 There are      6229 function pairs (      6779 Cartesian)
 Smallest overlap matrix eigenvalue = 3.10E-05
 Guess MOs from SCF MO coefficient file
 Reading MOs from coefficient file
 Reading MOs from coefficient file

 -----------------------------------------------------------------------
  General SCF calculation program by
  Eric Jon Sundstrom, Paul Horn, Yuezhi Mao, Dmitri Zuev, Alec White,
  David Stuck, Shaama M.S., Shane Yost, Joonho Lee, David Small,
  Daniel Levine, Susi Lehtola, Hugh Burton, Evgeny Epifanovsky
 -----------------------------------------------------------------------
 Exchange:     0.2220 Hartree-Fock + 1.0000 wB97X-D + LR-HF
 Correlation:  1.0000 wB97X-D
 Using SG-2 standard quadrature grid
 Dispersion:   Grimme D
 using 32 threads for integral computing
 -------------------------------------------------------
 OpenMP Integral computing Module                
 Release: version 1.0, May 2013, Q-Chem Inc. Pittsburgh 
 -------------------------------------------------------
 using 32 threads for integral computing
 -------------------------------------------------------
 OpenMP Integral computing Module                
 Release: version 1.0, May 2013, Q-Chem Inc. Pittsburgh 
 -------------------------------------------------------
 -------------------------------------------------------
 OpenMP BLAS3 based DFT computing Module                
 Release: version 1.0, May 2013, Q-Chem Inc. Pittsburgh 
 -------------------------------------------------------
 A restricted SCF calculation will be
 performed using Roothaan-Hall, GDM
 SCF converges when RMS gradient is below 1.0e-08
 ---------------------------------------
  Cycle       Energy         DIIS error
 ---------------------------------------
    1    -265.3018022731      3.66e-04  Roothaan Step
 ---------------------------------------
  Cycle       Energy        RMS Gradient
 ---------------------------------------
    1    -265.3020330714      1.46e-03   Normal BFGS step
    2    -265.3020422704      2.61e-03   Normal BFGS step
    3    -265.3020573909      3.46e-04   Normal BFGS step
    4    -265.3020583363      1.45e-04   Normal BFGS step
    5    -265.3020585939      4.44e-05   Normal BFGS step
    6    -265.3020585969      5.86e-05   Normal BFGS step
    7    -265.3020586081      8.73e-06   Normal BFGS step
    8    -265.3020586086      4.87e-06   Normal BFGS step
    9    -265.3020586088      1.10e-06   Normal BFGS step
   10    -265.3020586088      9.35e-07   Normal BFGS step
   11    -265.3020586088      9.85e-08   Normal BFGS step
   12    -265.3020586088      4.75e-08   Normal BFGS step
   13    -265.3020586088      1.37e-08   Normal BFGS step
   14    -265.3020586088      3.55e-09  Convergence criterion met
 ---------------------------------------
 SCF time:   CPU 250.10s  wall 9.00s 
 SCF   energy in the final basis set =     -265.3020586088
 
 --------------------------------------------------------------
 
                    Orbital Energies (a.u.)
 --------------------------------------------------------------
 
 Alpha MOs
 -- Occupied --
-19.181 -19.034 -10.242 -10.137 -10.036  -1.096  -0.934  -0.611
 -0.509  -0.401  -0.397  -0.382  -0.336  -0.302  -0.278  -0.271
 -0.090  -0.083
 -- Virtual --
  0.168   0.190   0.195   0.216   0.220   0.253   0.257   0.261
  0.278   0.283   0.294   0.321   0.331   0.336   0.347   0.370
  0.395   0.415   0.422   0.457   0.470   0.506   0.511   0.515
  0.530   0.552   0.632   0.646   0.737   0.755   0.801   0.827
  0.830   0.868   0.901   0.924   1.011   1.034   1.081   1.150
  1.155   1.251   1.259   1.307   1.341   1.395   1.431   1.455
  1.462   1.495   1.524   1.592   1.601   1.647   1.659   1.696
  1.747   1.832   1.926   2.022   2.265   2.287   2.297   2.306
  2.899   2.902   2.956   2.995   3.026   3.029   3.081   3.153
  3.154   3.228   3.239   3.302   3.338   3.574   3.588   3.607
  3.749   3.783   3.830   3.942   4.173   5.192   5.238   5.385
  5.408   5.837   5.931  23.817  24.082  25.136  50.148  50.388
 --------------------------------------------------------------
 
          Ground-State Mulliken Net Atomic Charges

     Atom                 Charge (a.u.)
  ----------------------------------------
      1 O                    -0.020808
      2 O                    -0.473740
      3 C                    -0.665221
      4 C                    -0.005313
      5 C                    -0.049419
      6 H                     0.214501
  ----------------------------------------
  Sum of atomic charges =    -1.000000

 -----------------------------------------------------------------
                    Cartesian Multipole Moments
 -----------------------------------------------------------------
    Charge (ESU x 10^10)
                -4.8032
    Dipole Moment (Debye)
         X       3.3269      Y      -2.4161      Z       0.0973
       Tot       4.1128
    Quadrupole Moments (Debye-Ang)
        XX     -46.2075     XY       8.3707     YY     -37.4163
        XZ      -0.4756     YZ       0.2114     ZZ     -32.9564
    Octopole Moments (Debye-Ang^2)
       XXX       6.7684    XXY     -11.0373    XYY       3.3424
       YYY     -13.1715    XXZ       3.7507    XYZ      -3.1753
       YYZ       0.7266    XZZ      -0.8416    YZZ      -1.5637
       ZZZ       3.5857
    Hexadecapole Moments (Debye-Ang^3)
      XXXX    -612.9380   XXXY     200.9704   XXYY    -156.0317
      XYYY     161.5936   YYYY    -235.1190   XXXZ      21.9063
      XXYZ      -3.8566   XYYZ       7.0988   YYYZ     -25.9759
      XXZZ    -106.0199   XYZZ      49.7583   YYZZ     -60.0448
      XZZZ      38.1571   YZZZ     -30.5836   ZZZZ    -121.7252
 -----------------------------------------------------------------
 Calculating analytic gradient of the SCF energy
 Gradient of SCF Energy
            1           2           3           4           5           6
    1   0.0078713  -0.0001461  -0.0000967   0.0002391  -0.0078941   0.0000265
    2  -0.0024477  -0.0001089  -0.0001725   0.0003545   0.0024720  -0.0000974
    3   0.0069226   0.0000601  -0.0000758   0.0000852  -0.0069721  -0.0000201
 Max gradient component =       7.894E-03
 RMS gradient           =       3.599E-03
 Gradient time:  CPU 30.88 s  wall 1.35 s
 Geometry Optimization Parameters
   NAtoms,    NIC,     NZ,  NCons,   NDum,   NFix, NCnnct, MaxDiis
        6      27       0       0       0       0       0       0

 Cartesian Hessian Update
 Hessian Updated using BFGS Update


** GEOMETRY OPTIMIZATION IN DELOCALIZED INTERNAL COORDINATES **
   Searching for a Minimum

   Optimization Cycle: 199

                       Coordinates (Angstroms)
     ATOM                X               Y               Z
      1  O         2.4178453689   -1.3093347960   -0.2425620052
      2  O        -2.1250836127    1.3116597838   -0.2479754067
      3  C        -0.0915072669    0.3340411284    0.7447725276
      4  C        -1.1435355814    0.8634674331    0.3027213828
      5  C         1.5636941297   -1.0309178029   -0.9491790497
      6  H         0.4756190810    0.2555961641    1.6503523268
   Point Group: c1    Number of degrees of freedom:    12


   Energy is   -265.302058609

 Hessian Updated using BFGS Update

 12 Hessian modes will be used to form the next step
  Hessian Eigenvalues:
     0.004236    0.005816    0.073783    0.146281    0.162574    0.204855
     0.332978    0.336687    0.659238    0.793113   10.127210   49.889170
**WARNING** Magnitude of eigenvalue  12 too large.  Replaced by    25.000000

 Minimum Search - Taking Simple RFO Step
 Searching for Lamda that Minimizes Along All modes
 Value Taken    Lamda =  -0.00021019
 Step Taken.  Stepsize is  0.003505

                             Maximum     Tolerance    Cnvgd?
         Gradient           0.043338      0.000300      NO
         Displacement       0.002015      0.001200      NO
         Energy change     -0.000003      0.000001      NO


 New Cartesian Coordinates Obtained by Inverse Iteration

 Displacement from previous Coordinates is:  0.028318
 ----------------------------------------------------------------
             Standard Nuclear Orientation (Angstroms)
    I     Atom           X                Y                Z
 ----------------------------------------------------------------
    1      O       2.4110666977    -1.3162159600    -0.2467012187
    2      O      -2.1252761365     1.3082838598    -0.2494810566
    3      C      -0.0909080701     0.3355486312     0.7464215680
    4      C      -1.1433991793     0.8626162395     0.3026819317
    5      C       1.5695163437    -1.0243866037    -0.9470374403
    6      H       0.4760324631     0.2586657438     1.6522459915
 ----------------------------------------------------------------
 Molecular Point Group                 C1    NOp =  1
 Largest Abelian Subgroup              C1    NOp =  1
 Nuclear Repulsion Energy =   115.5130101164 hartrees
 There are       18 alpha and       18 beta electrons
 Applying Cartesian multipole field
    Component          Value
    ---------          -----
     (2,0,0)        1.00000E-11
     (0,2,0)        2.00000E-11
     (0,0,2)       -3.00000E-11
 Nucleus-field energy     =     0.0000000052 hartrees
 Requested basis set is 6-311++G(d)
 There are 34 shells and 114 basis functions
 A cutoff of  1.0D-12 yielded    542 shell pairs
 There are      6229 function pairs (      6779 Cartesian)
 Smallest overlap matrix eigenvalue = 3.11E-05
 Guess MOs from SCF MO coefficient file
 Reading MOs from coefficient file
 Reading MOs from coefficient file

 -----------------------------------------------------------------------
  General SCF calculation program by
  Eric Jon Sundstrom, Paul Horn, Yuezhi Mao, Dmitri Zuev, Alec White,
  David Stuck, Shaama M.S., Shane Yost, Joonho Lee, David Small,
  Daniel Levine, Susi Lehtola, Hugh Burton, Evgeny Epifanovsky
 -----------------------------------------------------------------------
 Exchange:     0.2220 Hartree-Fock + 1.0000 wB97X-D + LR-HF
 Correlation:  1.0000 wB97X-D
 Using SG-2 standard quadrature grid
 Dispersion:   Grimme D
 using 32 threads for integral computing
 -------------------------------------------------------
 OpenMP Integral computing Module                
 Release: version 1.0, May 2013, Q-Chem Inc. Pittsburgh 
 -------------------------------------------------------
 using 32 threads for integral computing
 -------------------------------------------------------
 OpenMP Integral computing Module                
 Release: version 1.0, May 2013, Q-Chem Inc. Pittsburgh 
 -------------------------------------------------------
 -------------------------------------------------------
 OpenMP BLAS3 based DFT computing Module                
 Release: version 1.0, May 2013, Q-Chem Inc. Pittsburgh 
 -------------------------------------------------------
 A restricted SCF calculation will be
 performed using Roothaan-Hall, GDM
 SCF converges when RMS gradient is below 1.0e-08
 ---------------------------------------
  Cycle       Energy         DIIS error
 ---------------------------------------
    1    -265.3017951644      3.70e-04  Roothaan Step
 ---------------------------------------
  Cycle       Energy        RMS Gradient
 ---------------------------------------
    1    -265.3020339357      1.31e-03   Normal BFGS step
    2    -265.3020451664      2.32e-03   Normal BFGS step
    3    -265.3020576944      3.98e-04   Normal BFGS step
    4    -265.3020587548      1.44e-04   Normal BFGS step
    5    -265.3020590027      4.27e-05   Normal BFGS step
    6    -265.3020590051      5.54e-05   Normal BFGS step
    7    -265.3020590158      8.29e-06   Normal BFGS step
    8    -265.3020590162      4.30e-06   Normal BFGS step
    9    -265.3020590164      7.46e-07   Normal BFGS step
   10    -265.3020590164      7.51e-07   Normal BFGS step
   11    -265.3020590164      1.36e-07   Normal BFGS step
   12    -265.3020590164      4.33e-08   Normal BFGS step
   13    -265.3020590164      1.58e-08   Normal BFGS step
   14    -265.3020590164      4.07e-09  Convergence criterion met
 ---------------------------------------
 SCF time:   CPU 251.35s  wall 9.00s 
 SCF   energy in the final basis set =     -265.3020590164
 
 --------------------------------------------------------------
 
                    Orbital Energies (a.u.)
 --------------------------------------------------------------
 
 Alpha MOs
 -- Occupied --
-19.181 -19.034 -10.239 -10.137 -10.035  -1.102  -0.934  -0.611
 -0.510  -0.404  -0.401  -0.382  -0.335  -0.302  -0.277  -0.271
 -0.089  -0.083
 -- Virtual --
  0.168   0.191   0.197   0.217   0.221   0.254   0.258   0.261
  0.278   0.283   0.294   0.321   0.331   0.337   0.347   0.371
  0.396   0.415   0.421   0.457   0.470   0.506   0.511   0.515
  0.530   0.552   0.633   0.648   0.738   0.756   0.801   0.828
  0.831   0.870   0.902   0.927   1.015   1.035   1.083   1.150
  1.156   1.253   1.258   1.308   1.341   1.396   1.432   1.456
  1.462   1.496   1.523   1.593   1.600   1.647   1.664   1.700
  1.747   1.832   1.927   2.022   2.266   2.287   2.297   2.318
  2.900   2.905   2.960   2.996   3.027   3.030   3.081   3.153
  3.155   3.229   3.239   3.302   3.339   3.576   3.597   3.615
  3.749   3.784   3.831   3.945   4.174   5.193   5.238   5.385
  5.409   5.853   5.931  23.817  24.101  25.137  50.157  50.388
 --------------------------------------------------------------
 
          Ground-State Mulliken Net Atomic Charges

     Atom                 Charge (a.u.)
  ----------------------------------------
      1 O                    -0.013296
      2 O                    -0.474559
      3 C                    -0.669704
      4 C                    -0.002682
      5 C                    -0.053662
      6 H                     0.213904
  ----------------------------------------
  Sum of atomic charges =    -1.000000

 -----------------------------------------------------------------
                    Cartesian Multipole Moments
 -----------------------------------------------------------------
    Charge (ESU x 10^10)
                -4.8032
    Dipole Moment (Debye)
         X       3.3949      Y      -2.4514      Z       0.1006
       Tot       4.1887
    Quadrupole Moments (Debye-Ang)
        XX     -46.0180     XY       8.2939     YY     -37.3576
        XZ      -0.4609     YZ       0.2216     ZZ     -32.9950
    Octopole Moments (Debye-Ang^2)
       XXX       7.6225    XXY     -11.2747    XYY       3.4541
       YYY     -13.3105    XXZ       3.7716    XYZ      -3.1649
       YYZ       0.6563    XZZ      -0.8067    YZZ      -1.6367
       ZZZ       3.5522
    Hexadecapole Moments (Debye-Ang^3)
      XXXX    -610.1754   XXXY     200.0218   XXYY    -155.4760
      XYYY     161.0774   YYYY    -234.5344   XXXZ      21.7970
      XXYZ      -3.7690   XYYZ       7.0546   YYYZ     -25.8669
      XXZZ    -105.9490   XYZZ      49.6473   YYZZ     -59.9526
      XZZZ      38.3050   YZZZ     -30.4874   ZZZZ    -122.0171
 -----------------------------------------------------------------
 Calculating analytic gradient of the SCF energy
 Gradient of SCF Energy
            1           2           3           4           5           6
    1  -0.0084081   0.0000566   0.0001884  -0.0001147   0.0082257   0.0000521
    2   0.0029046  -0.0002075  -0.0004111   0.0005215  -0.0026959  -0.0001116
    3  -0.0069200   0.0002084  -0.0002663  -0.0001863   0.0072213  -0.0000572
 Max gradient component =       8.408E-03
 RMS gradient           =       3.762E-03
 Gradient time:  CPU 28.58 s  wall 1.26 s
 Geometry Optimization Parameters
   NAtoms,    NIC,     NZ,  NCons,   NDum,   NFix, NCnnct, MaxDiis
        6      27       0       0       0       0       0       0

 Cartesian Hessian Update
 Hessian Updated using BFGS Update


** GEOMETRY OPTIMIZATION IN DELOCALIZED INTERNAL COORDINATES **
   Searching for a Minimum

   Optimization Cycle: 200

                       Coordinates (Angstroms)
     ATOM                X               Y               Z
      1  O         2.4110666977   -1.3162159600   -0.2467012187
      2  O        -2.1252761365    1.3082838598   -0.2494810566
      3  C        -0.0909080701    0.3355486312    0.7464215680
      4  C        -1.1433991793    0.8626162395    0.3026819317
      5  C         1.5695163437   -1.0243866037   -0.9470374403
      6  H         0.4760324631    0.2586657438    1.6522459915
   Point Group: c1    Number of degrees of freedom:    12


   Energy is   -265.302059016

 Hessian Updated using BFGS Update

 12 Hessian modes will be used to form the next step
  Hessian Eigenvalues:
     0.004236    0.005816    0.073745    0.146123    0.162229    0.204846
     0.332913    0.336682    0.659142    0.793113   10.119479   49.896607
**WARNING** Magnitude of eigenvalue  12 too large.  Replaced by    25.000000

 Minimum Search - Taking Simple RFO Step
 Searching for Lamda that Minimizes Along All modes
 Value Taken    Lamda =  -0.00020644
 Step Taken.  Stepsize is  0.003391

                             Maximum     Tolerance    Cnvgd?
         Gradient           0.042989      0.000300      NO
         Displacement       0.002276      0.001200      NO
         Energy change     -0.000000      0.000001     YES


 New Cartesian Coordinates Obtained by Inverse Iteration

 Displacement from previous Coordinates is:  0.026475
 ----------------------------------------------------------------
             Standard Nuclear Orientation (Angstroms)
    I     Atom           X                Y                Z
 ----------------------------------------------------------------
    1      O       2.4175838311    -1.3096040960    -0.2438607868
    2      O      -2.1241817774     1.3108289876    -0.2492952228
    3      C      -0.0914045760     0.3342494153     0.7460827555
    4      C      -1.1430991177     0.8631556491     0.3026685084
    5      C       1.5630159744    -1.0304851811    -0.9495453644
    6      H       0.4751177842     0.2563671357     1.6520798856
 ----------------------------------------------------------------
 Molecular Point Group                 C1    NOp =  1
 Largest Abelian Subgroup              C1    NOp =  1
 Nuclear Repulsion Energy =   115.3167237077 hartrees
 There are       18 alpha and       18 beta electrons

                       Distance Matrix (Angstroms)
             O (  1)   O (  2)   C (  3)   C (  4)   C (  5)
   O (  2)  5.243504
   C (  3)  3.158681  2.465090
   C (  4)  4.206904  1.211445  1.257943
   C (  5)  1.142884  4.423520  2.734001  3.532276
   H (  6)  3.133693  3.388728  1.071375  2.192653  3.099672
 


 *******************************************
 **  MAXIMUM OPTIMIZATION CYCLES REACHED  **
 *******************************************

 Q-Chem fatal error occurred in module 0, line  456, PE  0:

 Maximum optimization cycles reached

