
Running Job 1 of 1 mol.qin
qchem mol.qin_6137.0 /tmp/qchem6137/ 1
srun -n 1 /global/common/edison/software/qchem/5.1beta/exe/qcprog.exe mol.qin_6137.0 /tmp/qchem6137/

Process 0 of 1 is on nid06038 - thread support 0
initial socket setup ...start
initial socket setup ...done 
now start server 0 ... 
Check license passed

                  Welcome to Q-Chem
     A Quantum Leap Into The Future Of Chemistry


 Q-Chem 5.1, Q-Chem, Inc., Pleasanton, CA (2018)

 Yihan Shao,  Zhengting Gan,  E. Epifanovsky,  A. T. B. Gilbert,  M. Wormit,  
 J. Kussmann,  A. W. Lange,  A. Behn,  Jia Deng,  Xintian Feng,  D. Ghosh,  
 M. Goldey,  P. R. Horn,  L. D. Jacobson,  I. Kaliman,  T. Kus,  A. Landau,  
 Jie Liu,  E. I. Proynov,  R. M. Richard,  R. P. Steele,  E. J. Sundstrom,  
 H. L. Woodcock III,  P. M. Zimmerman,  D. Zuev,  B. Albrecht,  E. Alguire,  
 S. A. Baeppler,  D. Barton,  Z. Benda,  Y. A. Bernard,  E. J. Berquist,  
 K. B. Bravaya,  H. Burton,  D. Casanova,  Chun-Min Chang,  Yunqing Chen,  
 A. Chien,  K. D. Closser,  M. P. Coons,  S. Coriani,  S. Dasgupta,  
 A. L. Dempwolff,  M. Diedenhofen,  Hainam Do,  R. G. Edgar,  Po-Tung Fang,  
 S. Faraji,  S. Fatehi,  Qingguo Feng,  K. D. Fenk,  J. Fosso-Tande,  
 Qinghui Ge,  A. Ghysels,  G. Gidofalvi,  J. Gomes,  J. Gonthier,  A. Gunina,  
 D. Hait,  M. W. D. Hanson-Heine,  P. H. P. Harbach,  A. W. Hauser,  
 J. E. Herr,  E. G. Hohenstein,  Z. C. Holden,  Kerwin Hui,  B. C. Huynh,  
 T.-C. Jagau,  Hyunjun Ji,  B. Kaduk,  K. Khistyaev,  Jaehoon Kim,  
 P. Klunzinger,  K. Koh,  D. Kosenkov,  L. Koulias,  T. Kowalczyk,  
 C. M. Krauter,  A. Kunitsa,  Ka Un Lao,  A. Laurent,  K. V. Lawler,  
 Joonho Lee,  D. Lefrancois,  S. Lehtola,  D. S. Levine,  Yi-Pei Li,  
 You-Sheng Lin,  Fenglai Liu,  E. Livshits,  A. Luenser,  P. Manohar,  
 E. Mansoor,  S. F. Manzer,  Shan-Ping Mao,  Yuezhi Mao,  N. Mardirossian,  
 A. V. Marenich,  T. Markovich,  L. A. Martinez-Martinez,  S. A. Maurer,  
 N. J. Mayhall,  S. C. McKenzie,  J.-M. Mewes,  A. F. Morrison,  
 J. W. Mullinax,  K. Nanda,  T. S. Nguyen-Beck,  R. Olivares-Amaya,  
 J. A. Parkhill,  T. M. Perrine,  F. Plasser,  P. Pokhilko,  S. Prager,  
 A. Prociuk,  E. Ramos,  D. R. Rehn,  F. Rob,  M. Schneider,  N. Sergueev,  
 S. M. Sharada,  S. Sharma,  D. W. Small,  T. Stauch,  T. Stein,  
 Yu-Chuan Su,  A. J. W. Thom,  A. Tkatchenko,  T. Tsuchimochi,  N. M. Tubman,  
 L. Vogt,  M. L. Vidal,  O. Vydrov,  M. A. Watson,  J. Wenzel,  
 M. de Wergifosse,  T. A. Wesolowski,  A. White,  J. Witte,  A. Yamada,  
 Jun Yang,  K. Yao,  S. Yeganeh,  S. R. Yost,  Zhi-Qiang You,  A. Zech,  
 Igor Ying Zhang,  Xing Zhang,  Yan Zhao,  Ying Zhu,  B. R. Brooks,  
 G. K. L. Chan,  C. J. Cramer,  M. S. Gordon,  W. J. Hehre,  A. Klamt,  
 M. W. Schmidt,  C. D. Sherrill,  D. G. Truhlar,  A. Aspuru-Guzik,  R. Baer,  
 A. T. Bell,  N. A. Besley,  Jeng-Da Chai,  R. A. DiStasio Jr.,  A. Dreuw,  
 B. D. Dunietz,  T. R. Furlani,  Chao-Ping Hsu,  Yousung Jung,  Jing Kong,  
 D. S. Lambrecht,  WanZhen Liang,  C. Ochsenfeld,  V. A. Rassolov,  
 L. V. Slipchenko,  J. E. Subotnik,  T. Van Voorhis,  J. M. Herbert,  
 A. I. Krylov,  P. M. W. Gill,  M. Head-Gordon

 Contributors to earlier versions of Q-Chem not listed above: 
 R. D. Adamson,  B. Austin,  J. Baker,  G. J. O. Beran,  K. Brandhorst,  
 S. T. Brown,  E. F. C. Byrd,  A. K. Chakraborty,  C.-L. Cheng,  
 Siu Hung Chien,  D. M. Chipman,  D. L. Crittenden,  H. Dachsel,  
 R. J. Doerksen,  A. D. Dutoi,  L. Fusti-Molnar,  W. A. Goddard III,  
 A. Golubeva-Zadorozhnaya,  S. R. Gwaltney,  G. Hawkins,  A. Heyden,  
 S. Hirata,  G. Kedziora,  F. J. Keil,  C. Kelley,  Jihan Kim,  R. A. King,  
 R. Z. Khaliullin,  P. P. Korambath,  W. Kurlancheek,  A. M. Lee,  M. S. Lee,  
 S. V. Levchenko,  Ching Yeh Lin,  D. Liotard,  R. C. Lochan,  I. Lotan,  
 P. E. Maslen,  N. Nair,  D. P. O'Neill,  D. Neuhauser,  E. Neuscamman,  
 C. M. Oana,  R. Olson,  B. Peters,  R. Peverati,  P. A. Pieniazek,  
 Y. M. Rhee,  J. Ritchie,  M. A. Rohrdanz,  E. Rosta,  N. J. Russ,  
 H. F. Schaefer III,  N. E. Schultz,  N. Shenvi,  A. C. Simmonett,  A. Sodt,  
 D. Stuck,  K. S. Thanthiriwatte,  V. Vanovschi,  Tao Wang,  A. Warshel,  
 C. F. Williams,  Q. Wu,  X. Xu,  W. Zhang

 Please cite Q-Chem as follows:
 Y. Shao et al., Mol. Phys. 113, 184-215 (2015)
 DOI: 10.1080/00268976.2014.952696

 Q-Chem 5.1.0 for Intel X86 EM64T Linux

 Parts of Q-Chem use Armadillo 8.300.2 (Tropical Shenanigans).
 http://arma.sourceforge.net/

 Q-Chem begins on Mon Jul  9 13:57:13 2018  

Host: edison04
0

     Scratch files written to /tmp/qchem6137//
 Apr1918  _RNUM -1
 Parallel job on  1  processors
Processing $rem in /global/common/edison/software/qchem/5.1beta/config/preferences.
 MEM_TOTAL  2000 

Checking the input file for inconsistencies... 	...done.

--------------------------------------------------------------
User input:
--------------------------------------------------------------
$molecule
-2 2
S     -1.1408748192      0.8527464235     -0.0736155869
S      1.1408278580     -0.8526870677     -0.0736168858
O     -1.6237636360      1.8516556037     -1.0049437043
C      2.5517736501      0.3739697416      0.0238707855
N     -0.0000306574      0.0000138173     -0.7905593654
$end

$rem
job_type = opt
basis = 6-311++g*
max_scf_cycles = 200
gen_scfman = true
scf_algorithm = gdm
method = wb97xd
geom_opt_max_cycles = 200
$end
--------------------------------------------------------------
 ----------------------------------------------------------------
             Standard Nuclear Orientation (Angstroms)
    I     Atom           X                Y                Z
 ----------------------------------------------------------------
    1      S       1.2479277811     0.1886563724     0.3776077740
    2      S      -1.5581815760     0.4518087523    -0.0361211242
    3      O       2.2890403603    -0.5103149119    -0.3475797624
    4      C      -2.1565553804    -1.3092595686     0.1772938741
    5      N      -0.0584185545     0.2415192444    -0.5352730776
 ----------------------------------------------------------------
 Molecular Point Group                 C1    NOp =  1
 Largest Abelian Subgroup              C1    NOp =  1
 Nuclear Repulsion Energy =   252.2439509418 hartrees
 There are       28 alpha and       27 beta electrons
 Requested basis set is 6-311++G(d)
 There are 44 shells and 126 basis functions

 Total QAlloc Memory Limit   2000 MB
 Mega-Array Size       188 MB
 MEM_STATIC part       192 MB
 A cutoff of  1.0D-12 yielded    894 shell pairs
 There are      7672 function pairs (      8304 Cartesian)
 
 -------------------------------------------------------
 OpenMP Integral Computing Module                       
 Release: version 1.0, May 2013, Q-Chem Inc. Pittsburgh 
 -------------------------------------------------------
 Integral Job Info:
 Integral job number is                      11
 Integral operator is                         1
 short-range coefficients              22203600
 long-range coefficients              100000000
 Omega coefficients                         200
 if combine SR and LR in K                    1
 Integral screening is                        0
 Integral computing path is                   2
 max size of driver memory is            800000
 size of driver memory is                593474
 size of scratch memory is              4293864
 max col of scratch BK array               1296
 max len of scratch array in speh3          155
 max len of scratch index in speh4           18
 max int batch size is                      520
 min int batch size is                       52
 fixed nKL is                                52
 max L of basis functions is                  2
 order of int derivative is                   0
 number of shells is                         44
 number of basis is                         131
 number of cartesian basis is               131
 number of contracted shell pairs           894
 number of primitive shell pairs           2569
 maxK2 (contraction) of shell pair           36
 max number of K2 of shell pair               1
 max number of CS2 of shell pair             89
 max number of PS2 of shell pair            336
 mem total for path MDJ                  516380
 -------------------------------------------------------
 Smallest overlap matrix eigenvalue = 5.83E-04

 Scale SEOQF with 1.000000e-01/1.000000e-01/1.000000e-01

 Standard Electronic Orientation quadrupole field applied
 Nucleus-field energy     =     0.0000000054 hartrees
 Guess from superposition of atomic densities
 Warning:  Energy on first SCF cycle will be non-variational
 SAD guess density has 44.436141 electrons

 -----------------------------------------------------------------------
  General SCF calculation program by
  Eric Jon Sundstrom, Paul Horn, Yuezhi Mao, Dmitri Zuev, Alec White,
  David Stuck, Shaama M.S., Shane Yost, Joonho Lee, David Small,
  Daniel Levine, Susi Lehtola, Hugh Burton, Evgeny Epifanovsky
 -----------------------------------------------------------------------
 Exchange:     0.2220 Hartree-Fock + 1.0000 wB97X-D + LR-HF
 Correlation:  1.0000 wB97X-D
 Using SG-2 standard quadrature grid
 Dispersion:   Grimme D
 using 24 threads for integral computing
 -------------------------------------------------------
 OpenMP Integral computing Module                
 Release: version 1.0, May 2013, Q-Chem Inc. Pittsburgh 
 -------------------------------------------------------
 using 24 threads for integral computing
 -------------------------------------------------------
 OpenMP Integral computing Module                
 Release: version 1.0, May 2013, Q-Chem Inc. Pittsburgh 
 -------------------------------------------------------
 -------------------------------------------------------
 OpenMP BLAS3 based DFT computing Module                
 Release: version 1.0, May 2013, Q-Chem Inc. Pittsburgh 
 -------------------------------------------------------
 A unrestricted SCF calculation will be
 performed using Roothaan-Hall, GDM
 SCF converges when RMS gradient is below 1.0e-08
 ---------------------------------------
  Cycle       Energy         DIIS error
 ---------------------------------------
    1    -929.5643376516      3.22e-01  Roothaan Step
 ---------------------------------------
  Cycle       Energy        RMS Gradient
 ---------------------------------------
    1    -941.3176856138      2.10e+00   Descent step
    2    -944.5185993576      2.04e+00  Line search: understep
    3    -951.7397982826      8.40e-01   Descent step
    4    -953.3195172502      1.42e+00   Descent step
    5    -954.8885685019      2.17e+00   Descent step
    6    -956.6241665720      1.08e+00   Descent step
    7    -958.1496092495      8.30e-01   Descent step
    8    -959.3450829591      9.20e-01   Descent step
    9    -960.3969409166      6.17e-01   Descent step
   10    -961.2597946230      5.80e-01   Descent step
   11    -962.0335955627      3.67e-01   Descent step
   12    -962.6349125547      4.03e-01   Descent step
   13    -963.1490396482      1.82e-01   Descent step
   14    -963.5240624650      1.40e-01   Descent step
   15    -963.7999056567      1.04e-01   Descent step
   16    -963.9833840633      7.46e-02   Descent step
   17    -964.0816944212      4.09e-02   Dog-leg BFGS step
   18    -964.0814259608      4.66e-02  Line search: overstep
   19    -964.0916498913      2.65e-02   Dog-leg BFGS step
   20    -964.1037933206      2.36e-02   Dog-leg BFGS step
   21    -964.0510619635      8.05e-02  Line search: overstep
   22    -964.1064332258      1.47e-02   Normal BFGS step
   23    -964.1006712125      2.35e-02  Line search: overstep
   24    -964.1105331393      1.32e-02   Dog-leg BFGS step
   25    -964.0797681313      3.43e-02  Line search: overstep
   26    -964.1118666991      6.91e-03   Normal BFGS step
   27    -964.1088772379      2.26e-02  Line search: overstep
   28    -964.1121463101      6.03e-03   Normal BFGS step
   29    -964.1124331486      5.93e-03   Normal BFGS step
   30    -964.1123864514      6.70e-03  Line search: overstep
   31    -964.1127719137      6.15e-03   Normal BFGS step
   32    -964.1129941778      5.10e-03   Normal BFGS step
   33    -964.1132074212      5.85e-03   Normal BFGS step
   34    -964.1142560516      1.04e-02   Dog-leg BFGS step
   35    -964.1139572401      2.15e-02  Line search: overstep
   36    -964.1155527224      1.37e-02   Normal BFGS step
   37    -964.1163207660      1.51e-02   Normal BFGS step
   38    -964.1187827117      7.41e-03   Normal BFGS step
   39    -964.1194739834      4.10e-03   Normal BFGS step
   40    -964.1196821676      1.52e-03   Normal BFGS step
   41    -964.1197231331      1.08e-03   Normal BFGS step
   42    -964.1197348734      6.78e-04   Normal BFGS step
   43    -964.1197388279      4.64e-04   Normal BFGS step
   44    -964.1197413808      4.23e-04   Normal BFGS step
   45    -964.1197431779      4.46e-04   Normal BFGS step
   46    -964.1197451532      4.93e-04   Normal BFGS step
   47    -964.1197465288      3.48e-04   Normal BFGS step
   48    -964.1197472308      1.91e-04   Normal BFGS step
   49    -964.1197474557      9.66e-05   Normal BFGS step
   50    -964.1197475795      3.76e-05   Normal BFGS step
   51    -964.1197476004      2.17e-05   Normal BFGS step
   52    -964.1197476055      8.11e-06   Normal BFGS step
   53    -964.1197476066      3.62e-06   Normal BFGS step
   54    -964.1197476069      1.45e-06   Normal BFGS step
   55    -964.1197476069      7.11e-07   Normal BFGS step
   56    -964.1197476069      3.40e-07   Normal BFGS step
   57    -964.1197476069      2.28e-07   Normal BFGS step
   58    -964.1197476069      1.07e-07   Normal BFGS step
   59    -964.1197476069      3.76e-08   Normal BFGS step
   60    -964.1197476069      2.17e-08   Normal BFGS step
   61    -964.1197476069      8.30e-09  Convergence criterion met
 ---------------------------------------
 SCF time:   CPU 727.34s  wall 33.00s 
 SCF   energy in the final basis set =     -964.1197476069
<S^2> =          1.429964575
 
 --------------------------------------------------------------
 
                    Orbital Energies (a.u.)
 --------------------------------------------------------------
 
 Alpha MOs
 -- Occupied --
-88.760 -88.705 -18.893 -14.084  -9.967  -7.799  -7.746  -5.747
 -5.744  -5.743  -5.696  -5.690  -5.688  -0.829  -0.683  -0.492
 -0.349  -0.264  -0.198  -0.189  -0.173  -0.100  -0.067  -0.050
  0.010   0.032   0.092   0.102
 -- Virtual --
  0.296   0.305   0.321   0.330   0.334   0.344   0.353   0.366
  0.387   0.399   0.412   0.431   0.471   0.478   0.485   0.487
  0.514   0.525   0.544   0.560   0.576   0.590   0.610   0.627
  0.665   0.668   0.693   0.712   0.741   0.752   0.791   0.978
  0.993   1.023   1.075   1.099   1.103   1.128   1.131   1.150
  1.169   1.190   1.275   1.356   1.361   1.398   1.407   1.450
  1.485   1.508   1.519   1.540   1.573   1.661   1.821   1.832
  1.871   1.896   1.967   2.048   2.110   2.129   2.180   2.221
  2.276   2.372   2.492   2.576   2.616   2.974   3.015   3.194
  3.235   3.249   3.255   3.376   3.380   3.442   3.935   4.292
  4.356   4.585   5.418   5.454   5.593   8.380   8.478  17.708
 17.768  17.819  17.845  17.892  17.935  23.851  35.821  50.338
189.648 189.724
 
 Beta MOs
 -- Occupied --
-88.757 -88.705 -18.888 -14.078  -9.966  -7.796  -7.746  -5.746
 -5.742  -5.736  -5.696  -5.691  -5.688  -0.819  -0.670  -0.484
 -0.333  -0.255  -0.184  -0.175  -0.156  -0.081  -0.050  -0.042
  0.036   0.041   0.102
 -- Virtual --
  0.294   0.304   0.314   0.321   0.331   0.336   0.346   0.352
  0.371   0.390   0.398   0.407   0.430   0.476   0.486   0.488
  0.491   0.517   0.528   0.547   0.563   0.578   0.592   0.612
  0.629   0.669   0.671   0.695   0.714   0.743   0.756   0.796
  0.982   0.984   1.035   1.082   1.108   1.112   1.134   1.148
  1.157   1.189   1.192   1.278   1.358   1.366   1.406   1.418
  1.453   1.494   1.517   1.527   1.545   1.580   1.670   1.823
  1.835   1.871   1.904   1.972   2.070   2.115   2.131   2.185
  2.226   2.280   2.378   2.514   2.590   2.634   2.981   3.030
  3.188   3.247   3.263   3.269   3.382   3.395   3.446   3.943
  4.323   4.365   4.592   5.438   5.459   5.598   8.380   8.480
 17.716  17.768  17.820  17.845  17.892  17.937  23.854  35.829
 50.342 189.648 189.726
 --------------------------------------------------------------
 
          Ground-State Mulliken Net Atomic Charges

     Atom                 Charge (a.u.)    Spin (a.u.)
  --------------------------------------------------------
      1 S                    -0.039626       0.502272
      2 S                    -0.279375       0.007106
      3 O                    -0.473093       0.131574
      4 C                    -0.914490       0.060118
      5 N                    -0.293415       0.298929
  --------------------------------------------------------
  Sum of atomic charges =    -2.000000
  Sum of spin   charges =     1.000000

 -----------------------------------------------------------------
                    Cartesian Multipole Moments
 -----------------------------------------------------------------
    Charge (ESU x 10^10)
                -9.6064
    Dipole Moment (Debye)
         X       5.0956      Y       5.1485      Z       0.6126
       Tot       7.2696
    Quadrupole Moments (Debye-Ang)
        XX     -99.4972     XY      -9.2317     YY     -66.3574
        XZ       5.1362     YZ      -0.0637     ZZ     -57.1953
    Octopole Moments (Debye-Ang^2)
       XXX      86.8507    XXY      44.3680    XYY      35.8735
       YYY      30.1367    XXZ      -5.3806    XYZ      -6.3392
       YYZ      -3.9150    XZZ      15.3805    YZZ       4.5950
       ZZZ      -6.2472
    Hexadecapole Moments (Debye-Ang^3)
      XXXX   -1317.2250   XXXY    -121.0889   XXYY    -274.6820
      XYYY     -84.1187   YYYY    -290.5320   XXXZ      49.9331
      XXYZ       6.3159   XYYZ       6.7998   YYYZ       1.3252
      XXZZ    -199.2519   XYZZ     -16.3832   YYZZ     -68.2708
      XZZZ      10.2440   YZZZ       2.3363   ZZZZ    -140.3861
 -----------------------------------------------------------------
 Calculating analytic gradient of the SCF energy
 Gradient of SCF Energy
            1           2           3           4           5
    1   0.0563517   0.0684594  -0.0742103  -0.0006492  -0.0499516
    2  -0.0427863   0.0439612   0.0428074  -0.0425560  -0.0014263
    3  -0.0541816  -0.0297461   0.0435177   0.0021466   0.0382633
 Max gradient component =       7.421E-02
 RMS gradient           =       4.506E-02
 Gradient time:  CPU 21.44 s  wall 1.32 s
 Geometry Optimization Parameters
   NAtoms,    NIC,     NZ,  NCons,   NDum,   NFix, NCnnct, MaxDiis
        5      19       0       0       0       0       0       0


** GEOMETRY OPTIMIZATION IN DELOCALIZED INTERNAL COORDINATES **
   Searching for a Minimum

   Optimization Cycle:   1

                       Coordinates (Angstroms)
     ATOM                X               Y               Z
      1  S         1.2479277811    0.1886563724    0.3776077740
      2  S        -1.5581815760    0.4518087523   -0.0361211242
      3  O         2.2890403603   -0.5103149119   -0.3475797624
      4  C        -2.1565553804   -1.3092595686    0.1772938741
      5  N        -0.0584185545    0.2415192444   -0.5352730776
   Point Group: c1    Number of degrees of freedom:     9


   Energy is   -964.119747607


 Attempting to Generate Delocalized Internal Coordinates

  9 Hessian modes will be used to form the next step
  Hessian Eigenvalues:
     0.019512    0.019513    0.211675    0.250000    0.250000    0.250000
     0.522801    0.522815    0.965780

 Minimum Search - Taking Simple RFO Step
 Searching for Lamda that Minimizes Along All modes
 Value Taken    Lamda =  -0.03695130
 Calculated Step too Large.  Step scaled by  0.891966
 Step Taken.  Stepsize is  0.300000

                             Maximum     Tolerance    Cnvgd?
         Gradient           0.084878      0.000300      NO
         Displacement       0.207191      0.001200      NO
         Energy change     *********      0.000001      NO


 New Cartesian Coordinates Obtained by Inverse Iteration

 Displacement from previous Coordinates is:  0.671031
 ----------------------------------------------------------------
             Standard Nuclear Orientation (Angstroms)
    I     Atom           X                Y                Z
 ----------------------------------------------------------------
    1      S       1.2822498571     0.1540347304     0.3656494448
    2      S      -1.5749499664     0.3608122727     0.0041564771
    3      O       2.4735421773    -0.3899444730    -0.3526296750
    4      C      -2.3841643274    -1.2314256268     0.1853649781
    5      N      -0.0328651101     0.1689329854    -0.5666135410
 ----------------------------------------------------------------
 Molecular Point Group                 C1    NOp =  1
 Largest Abelian Subgroup              C1    NOp =  1
 Nuclear Repulsion Energy =   246.9172619434 hartrees
 There are       28 alpha and       27 beta electrons
 Applying Cartesian multipole field
    Component          Value
    ---------          -----
     (2,0,0)        1.00000E-11
     (0,2,0)        2.00000E-11
     (0,0,2)       -3.00000E-11
 Nucleus-field energy     =     0.0000000057 hartrees
 Requested basis set is 6-311++G(d)
 There are 44 shells and 126 basis functions
 A cutoff of  1.0D-12 yielded    884 shell pairs
 There are      7556 function pairs (      8172 Cartesian)
 Smallest overlap matrix eigenvalue = 5.23E-04
 Guess MOs from SCF MO coefficient file
 Reading MOs from coefficient file
 Reading MOs from coefficient file

 -----------------------------------------------------------------------
  General SCF calculation program by
  Eric Jon Sundstrom, Paul Horn, Yuezhi Mao, Dmitri Zuev, Alec White,
  David Stuck, Shaama M.S., Shane Yost, Joonho Lee, David Small,
  Daniel Levine, Susi Lehtola, Hugh Burton, Evgeny Epifanovsky
 -----------------------------------------------------------------------
 Exchange:     0.2220 Hartree-Fock + 1.0000 wB97X-D + LR-HF
 Correlation:  1.0000 wB97X-D
 Using SG-2 standard quadrature grid
 Dispersion:   Grimme D
 using 24 threads for integral computing
 -------------------------------------------------------
 OpenMP Integral computing Module                
 Release: version 1.0, May 2013, Q-Chem Inc. Pittsburgh 
 -------------------------------------------------------
 using 24 threads for integral computing
 -------------------------------------------------------
 OpenMP Integral computing Module                
 Release: version 1.0, May 2013, Q-Chem Inc. Pittsburgh 
 -------------------------------------------------------
 -------------------------------------------------------
 OpenMP BLAS3 based DFT computing Module                
 Release: version 1.0, May 2013, Q-Chem Inc. Pittsburgh 
 -------------------------------------------------------
 A unrestricted SCF calculation will be
 performed using Roothaan-Hall, GDM
 SCF converges when RMS gradient is below 1.0e-08
 ---------------------------------------
  Cycle       Energy         DIIS error
 ---------------------------------------
    1    -964.1113448860      1.46e-03  Roothaan Step
 ---------------------------------------
  Cycle       Energy        RMS Gradient
 ---------------------------------------
    1    -964.1407551208      1.40e-02   Normal BFGS step
    2    -964.1432382330      1.18e-02   Normal BFGS step
    3    -964.1453090205      5.37e-03   Normal BFGS step
    4    -964.1455463219      4.20e-03   Normal BFGS step
    5    -964.1457715036      3.09e-03   Normal BFGS step
    6    -964.1458718286      2.47e-03   Normal BFGS step
    7    -964.1459414587      1.40e-03   Normal BFGS step
    8    -964.1459726569      9.59e-04   Normal BFGS step
    9    -964.1459860594      5.25e-04   Normal BFGS step
   10    -964.1459899850      2.80e-04   Normal BFGS step
   11    -964.1459910748      1.19e-04   Normal BFGS step
   12    -964.1459913527      6.67e-05   Normal BFGS step
   13    -964.1459914555      3.45e-05   Normal BFGS step
   14    -964.1459914791      1.47e-05   Normal BFGS step
   15    -964.1459914847      8.70e-06   Normal BFGS step
   16    -964.1459914857      3.48e-06   Normal BFGS step
   17    -964.1459914859      1.57e-06   Normal BFGS step
   18    -964.1459914860      9.26e-07   Normal BFGS step
   19    -964.1459914860      8.30e-07   Normal BFGS step
   20    -964.1459914860      6.30e-07   Normal BFGS step
   21    -964.1459914860      3.97e-07   Normal BFGS step
   22    -964.1459914860      2.30e-07   Normal BFGS step
   23    -964.1459914860      1.20e-07   Normal BFGS step
   24    -964.1459914860      6.02e-08   Normal BFGS step
   25    -964.1459914860      2.58e-08   Normal BFGS step
   26    -964.1459914860      2.53e-08   Normal BFGS step
   27    -964.1459914860      8.96e-09  Convergence criterion met
 ---------------------------------------
 SCF time:   CPU 332.99s  wall 15.00s 
 SCF   energy in the final basis set =     -964.1459914860
<S^2> =          1.162237090
 
 --------------------------------------------------------------
 
                    Orbital Energies (a.u.)
 --------------------------------------------------------------
 
 Alpha MOs
 -- Occupied --
-88.763 -88.715 -18.897 -14.091  -9.970  -7.801  -7.755  -5.750
 -5.746  -5.745  -5.705  -5.699  -5.697  -0.808  -0.671  -0.500
 -0.363  -0.264  -0.189  -0.184  -0.165  -0.097  -0.065  -0.050
  0.001   0.021   0.087   0.096
 -- Virtual --
  0.299   0.308   0.321   0.327   0.332   0.344   0.354   0.370
  0.383   0.394   0.408   0.427   0.459   0.476   0.487   0.497
  0.509   0.527   0.534   0.553   0.577   0.581   0.606   0.623
  0.660   0.667   0.692   0.708   0.727   0.739   0.779   0.966
  0.993   1.011   1.072   1.091   1.101   1.115   1.124   1.152
  1.160   1.181   1.279   1.352   1.375   1.387   1.399   1.437
  1.465   1.490   1.514   1.525   1.546   1.660   1.813   1.823
  1.896   1.916   1.956   2.036   2.103   2.148   2.172   2.238
  2.273   2.377   2.484   2.570   2.584   2.946   2.994   3.195
  3.232   3.247   3.253   3.357   3.400   3.414   3.878   4.274
  4.340   4.527   5.421   5.447   5.548   8.348   8.436  17.702
 17.754  17.797  17.824  17.872  17.902  23.856  35.815  50.328
189.610 189.677
 
 Beta MOs
 -- Occupied --
-88.761 -88.715 -18.893 -14.084  -9.969  -7.798  -7.755  -5.748
 -5.744  -5.738  -5.705  -5.699  -5.697  -0.798  -0.657  -0.494
 -0.347  -0.254  -0.179  -0.167  -0.147  -0.079  -0.046  -0.043
  0.026   0.032   0.098
 -- Virtual --
  0.296   0.306   0.314   0.321   0.329   0.334   0.346   0.353
  0.375   0.383   0.394   0.406   0.425   0.469   0.482   0.489
  0.501   0.512   0.529   0.539   0.557   0.580   0.583   0.607
  0.625   0.662   0.673   0.693   0.710   0.728   0.743   0.784
  0.969   0.986   1.022   1.079   1.098   1.108   1.129   1.140
  1.160   1.178   1.183   1.281   1.358   1.379   1.397   1.407
  1.440   1.468   1.501   1.524   1.532   1.550   1.670   1.815
  1.825   1.896   1.922   1.961   2.059   2.107   2.151   2.176
  2.244   2.277   2.382   2.508   2.584   2.605   2.956   3.009
  3.191   3.240   3.261   3.267   3.372   3.404   3.419   3.885
  4.309   4.348   4.535   5.439   5.452   5.552   8.348   8.438
 17.711  17.755  17.798  17.824  17.872  17.904  23.857  35.823
 50.332 189.610 189.679
 --------------------------------------------------------------
 
          Ground-State Mulliken Net Atomic Charges

     Atom                 Charge (a.u.)    Spin (a.u.)
  --------------------------------------------------------
      1 S                     0.000955       0.486414
      2 S                    -0.290526      -0.012399
      3 O                    -0.512606       0.132127
      4 C                    -0.888770       0.057305
      5 N                    -0.309053       0.336552
  --------------------------------------------------------
  Sum of atomic charges =    -2.000000
  Sum of spin   charges =     1.000000

 -----------------------------------------------------------------
                    Cartesian Multipole Moments
 -----------------------------------------------------------------
    Charge (ESU x 10^10)
                -9.6064
    Dipole Moment (Debye)
         X       4.9079      Y       5.0737      Z       0.8704
       Tot       7.1125
    Quadrupole Moments (Debye-Ang)
        XX    -105.6571     XY      -9.8152     YY     -64.6661
        XZ       5.9609     YZ      -0.0874     ZZ     -56.5484
    Octopole Moments (Debye-Ang^2)
       XXX      90.1595    XXY      47.0573    XYY      35.6327
       YYY      33.5433    XXZ      -6.1538    XYZ      -5.3445
       YYZ      -3.0336    XZZ      13.3771    YZZ       5.4555
       ZZZ      -4.5809
    Hexadecapole Moments (Debye-Ang^3)
      XXXX   -1506.1254   XXXY    -134.6040   XXYY    -279.6526
      XYYY     -92.6424   YYYY    -261.6113   XXXZ      71.9078
      XXYZ       6.9148   XYYZ       7.1794   YYYZ       0.6783
      XXZZ    -211.7278   XYZZ     -18.0152   YYZZ     -61.3040
      XZZZ      16.3637   YZZZ       1.5041   ZZZZ    -135.9800
 -----------------------------------------------------------------
 Calculating analytic gradient of the SCF energy
 Gradient of SCF Energy
            1           2           3           4           5
    1   0.0328634   0.0519145  -0.0338796  -0.0161316  -0.0347668
    2  -0.0177654   0.0480180   0.0148144  -0.0473810   0.0023140
    3  -0.0322743  -0.0218227   0.0231005   0.0034879   0.0275086
 Max gradient component =       5.191E-02
 RMS gradient           =       3.088E-02
 Gradient time:  CPU 21.32 s  wall 1.16 s
 Geometry Optimization Parameters
   NAtoms,    NIC,     NZ,  NCons,   NDum,   NFix, NCnnct, MaxDiis
        5      19       0       0       0       0       0       0

 Cartesian Hessian Update
 Hessian Updated using BFGS Update


** GEOMETRY OPTIMIZATION IN DELOCALIZED INTERNAL COORDINATES **
   Searching for a Minimum

   Optimization Cycle:   2

                       Coordinates (Angstroms)
     ATOM                X               Y               Z
      1  S         1.2822498571    0.1540347304    0.3656494448
      2  S        -1.5749499664    0.3608122727    0.0041564771
      3  O         2.4735421773   -0.3899444730   -0.3526296750
      4  C        -2.3841643274   -1.2314256268    0.1853649781
      5  N        -0.0328651101    0.1689329854   -0.5666135410
   Point Group: c1    Number of degrees of freedom:     9


   Energy is   -964.145991486

 Hessian Updated using BFGS Update

  8 Hessian modes will be used to form the next step
  Hessian Eigenvalues:
     0.019510    0.020197    0.087105    0.242419    0.303790    0.502237
     0.535894    0.955380

 Minimum Search - Taking Simple RFO Step
 Searching for Lamda that Minimizes Along All modes
 Value Taken    Lamda =  -0.04337617
 Calculated Step too Large.  Step scaled by  0.527619
 Step Taken.  Stepsize is  0.300000

                             Maximum     Tolerance    Cnvgd?
         Gradient           0.055504      0.000300      NO
         Displacement       0.166562      0.001200      NO
         Energy change     -0.026244      0.000001      NO


 New Cartesian Coordinates Obtained by Inverse Iteration

 Displacement from previous Coordinates is:  0.366774
 ----------------------------------------------------------------
             Standard Nuclear Orientation (Angstroms)
    I     Atom           X                Y                Z
 ----------------------------------------------------------------
    1      S       1.2800029775     0.1264515589     0.3785334790
    2      S      -1.5867177947     0.2675562026     0.0324586265
    3      O       2.5434126994    -0.3223773259    -0.3581716395
    4      C      -2.4654538770    -1.1449004030     0.1914363842
    5      N      -0.0074313747     0.1356798560    -0.6083291661
 ----------------------------------------------------------------
 Molecular Point Group                 C1    NOp =  1
 Largest Abelian Subgroup              C1    NOp =  1
 Nuclear Repulsion Energy =   245.7968641749 hartrees
 There are       28 alpha and       27 beta electrons
 Applying Cartesian multipole field
    Component          Value
    ---------          -----
     (2,0,0)        1.00000E-11
     (0,2,0)        2.00000E-11
     (0,0,2)       -3.00000E-11
 Nucleus-field energy     =     0.0000000056 hartrees
 Requested basis set is 6-311++G(d)
 There are 44 shells and 126 basis functions
 A cutoff of  1.0D-12 yielded    883 shell pairs
 There are      7555 function pairs (      8171 Cartesian)
 Smallest overlap matrix eigenvalue = 3.85E-04
 Guess MOs from SCF MO coefficient file
 Reading MOs from coefficient file
 Reading MOs from coefficient file

 -----------------------------------------------------------------------
  General SCF calculation program by
  Eric Jon Sundstrom, Paul Horn, Yuezhi Mao, Dmitri Zuev, Alec White,
  David Stuck, Shaama M.S., Shane Yost, Joonho Lee, David Small,
  Daniel Levine, Susi Lehtola, Hugh Burton, Evgeny Epifanovsky
 -----------------------------------------------------------------------
 Exchange:     0.2220 Hartree-Fock + 1.0000 wB97X-D + LR-HF
 Correlation:  1.0000 wB97X-D
 Using SG-2 standard quadrature grid
 Dispersion:   Grimme D
 using 24 threads for integral computing
 -------------------------------------------------------
 OpenMP Integral computing Module                
 Release: version 1.0, May 2013, Q-Chem Inc. Pittsburgh 
 -------------------------------------------------------
 using 24 threads for integral computing
 -------------------------------------------------------
 OpenMP Integral computing Module                
 Release: version 1.0, May 2013, Q-Chem Inc. Pittsburgh 
 -------------------------------------------------------
 -------------------------------------------------------
 OpenMP BLAS3 based DFT computing Module                
 Release: version 1.0, May 2013, Q-Chem Inc. Pittsburgh 
 -------------------------------------------------------
 A unrestricted SCF calculation will be
 performed using Roothaan-Hall, GDM
 SCF converges when RMS gradient is below 1.0e-08
 ---------------------------------------
  Cycle       Energy         DIIS error
 ---------------------------------------
    1    -964.1426981106      1.12e-03  Roothaan Step
 ---------------------------------------
  Cycle       Energy        RMS Gradient
 ---------------------------------------
    1    -964.1600915434      2.21e-02   Normal BFGS step
    2    -964.1608526957      1.95e-02   Normal BFGS step
    3    -964.1642360694      8.19e-03   Normal BFGS step
    4    -964.1646638884      6.44e-03   Normal BFGS step
    5    -964.1651005111      5.75e-03   Normal BFGS step
    6    -964.1654363816      4.25e-03   Normal BFGS step
    7    -964.1657473039      3.07e-03   Normal BFGS step
    8    -964.1659093771      2.52e-03   Normal BFGS step
    9    -964.1659989066      1.77e-03   Normal BFGS step
   10    -964.1660309741      1.20e-03   Normal BFGS step
   11    -964.1660457247      7.28e-04   Normal BFGS step
   12    -964.1660506851      4.26e-04   Normal BFGS step
   13    -964.1660524335      1.67e-04   Normal BFGS step
   14    -964.1660527563      8.45e-05   Normal BFGS step
   15    -964.1660528553      3.82e-05   Normal BFGS step
   16    -964.1660528740      1.94e-05   Normal BFGS step
   17    -964.1660528778      6.83e-06   Normal BFGS step
   18    -964.1660528786      3.80e-06   Normal BFGS step
   19    -964.1660528788      1.88e-06   Normal BFGS step
   20    -964.1660528788      9.39e-07   Normal BFGS step
   21    -964.1660528788      3.85e-07   Normal BFGS step
   22    -964.1660528788      2.54e-07   Normal BFGS step
   23    -964.1660528788      9.36e-08   Normal BFGS step
   24    -964.1660528788      7.51e-08   Normal BFGS step
   25    -964.1660528788      5.56e-08   Normal BFGS step
   26    -964.1660528788      3.63e-08   Normal BFGS step
   27    -964.1660528788      1.24e-08   Normal BFGS step
   28    -964.1660528788      7.14e-09  Convergence criterion met
 ---------------------------------------
 SCF time:   CPU 348.31s  wall 16.00s 
 SCF   energy in the final basis set =     -964.1660528788
<S^2> =          0.768799492
 
 --------------------------------------------------------------
 
                    Orbital Energies (a.u.)
 --------------------------------------------------------------
 
 Alpha MOs
 -- Occupied --
-88.761 -88.721 -18.893 -14.088  -9.963  -7.798  -7.760  -5.747
 -5.744  -5.743  -5.709  -5.704  -5.703  -0.787  -0.659  -0.515
 -0.373  -0.262  -0.180  -0.176  -0.154  -0.092  -0.057  -0.046
 -0.004   0.009   0.083   0.096
 -- Virtual --
  0.301   0.310   0.320   0.330   0.332   0.344   0.354   0.372
  0.382   0.392   0.407   0.425   0.460   0.474   0.489   0.508
  0.513   0.529   0.534   0.554   0.579   0.582   0.605   0.621
  0.658   0.675   0.689   0.706   0.730   0.742   0.778   0.956
  0.999   1.015   1.066   1.086   1.103   1.111   1.123   1.152
  1.157   1.174   1.280   1.351   1.373   1.383   1.416   1.435
  1.466   1.484   1.515   1.521   1.548   1.671   1.810   1.818
  1.952   1.958   1.982   2.034   2.103   2.142   2.172   2.245
  2.283   2.408   2.490   2.565   2.576   2.918   2.998   3.208
  3.232   3.256   3.261   3.349   3.392   3.498   3.841   4.274
  4.337   4.503   5.429   5.451   5.527   8.350   8.410  17.703
 17.747  17.788  17.813  17.875  17.888  23.887  35.821  50.331
189.613 189.650
 
 Beta MOs
 -- Occupied --
-88.758 -88.721 -18.889 -14.080  -9.963  -7.795  -7.760  -5.745
 -5.741  -5.735  -5.710  -5.704  -5.704  -0.776  -0.645  -0.510
 -0.356  -0.252  -0.171  -0.157  -0.136  -0.079  -0.043  -0.035
  0.016   0.029   0.096
 -- Virtual --
  0.298   0.308   0.315   0.321   0.331   0.335   0.346   0.355
  0.373   0.381   0.392   0.407   0.424   0.466   0.480   0.491
  0.510   0.515   0.534   0.536   0.560   0.583   0.585   0.606
  0.623   0.660   0.681   0.690   0.708   0.732   0.744   0.782
  0.958   0.998   1.018   1.071   1.093   1.109   1.130   1.138
  1.160   1.175   1.176   1.282   1.358   1.382   1.393   1.419
  1.439   1.471   1.495   1.520   1.531   1.551   1.682   1.811
  1.819   1.953   1.963   1.984   2.057   2.107   2.146   2.176
  2.252   2.285   2.410   2.517   2.588   2.591   2.933   3.010
  3.208   3.235   3.270   3.275   3.363   3.396   3.500   3.848
  4.312   4.347   4.512   5.448   5.456   5.531   8.350   8.412
 17.712  17.747  17.788  17.813  17.875  17.889  23.888  35.830
 50.335 189.613 189.652
 --------------------------------------------------------------
 
          Ground-State Mulliken Net Atomic Charges

     Atom                 Charge (a.u.)    Spin (a.u.)
  --------------------------------------------------------
      1 S                     0.031324       0.466565
      2 S                    -0.386001      -0.019919
      3 O                    -0.546593       0.127865
      4 C                    -0.811870       0.051494
      5 N                    -0.286861       0.373995
  --------------------------------------------------------
  Sum of atomic charges =    -2.000000
  Sum of spin   charges =     1.000000

 -----------------------------------------------------------------
                    Cartesian Multipole Moments
 -----------------------------------------------------------------
    Charge (ESU x 10^10)
                -9.6064
    Dipole Moment (Debye)
         X       4.1903      Y       5.0154      Z       1.2381
       Tot       6.6517
    Quadrupole Moments (Debye-Ang)
        XX    -107.2663     XY      -9.9382     YY     -63.7966
        XZ       6.3526     YZ       0.0224     ZZ     -56.0380
    Octopole Moments (Debye-Ang^2)
       XXX      80.8488    XXY      46.8413    XYY      34.6844
       YYY      36.2730    XXZ      -6.1705    XYZ      -4.3687
       YYZ      -2.3829    XZZ      10.9409    YZZ       6.2188
       ZZZ      -2.9873
    Hexadecapole Moments (Debye-Ang^3)
      XXXX   -1549.2398   XXXY    -134.7409   XXYY    -276.8907
      XYYY     -96.2270   YYYY    -242.0394   XXXZ      80.6377
      XXYZ       6.3970   XYYZ       6.6297   YYYZ       0.8841
      XXZZ    -212.1114   XYZZ     -18.2732   YYZZ     -57.4015
      XZZZ      17.7586   YZZZ       1.5677   ZZZZ    -136.1318
 -----------------------------------------------------------------
 Calculating analytic gradient of the SCF energy
 Gradient of SCF Energy
            1           2           3           4           5
    1   0.0139974   0.0471079  -0.0133011  -0.0183306  -0.0294737
    2  -0.0028794   0.0345219   0.0025994  -0.0356346   0.0013927
    3  -0.0083549  -0.0162354   0.0069458   0.0025754   0.0150691
 Max gradient component =       4.711E-02
 RMS gradient           =       2.143E-02
 Gradient time:  CPU 21.38 s  wall 1.14 s
 Geometry Optimization Parameters
   NAtoms,    NIC,     NZ,  NCons,   NDum,   NFix, NCnnct, MaxDiis
        5      19       0       0       0       0       0       0

 Cartesian Hessian Update
 Hessian Updated using BFGS Update


** GEOMETRY OPTIMIZATION IN DELOCALIZED INTERNAL COORDINATES **
   Searching for a Minimum

   Optimization Cycle:   3

                       Coordinates (Angstroms)
     ATOM                X               Y               Z
      1  S         1.2800029775    0.1264515589    0.3785334790
      2  S        -1.5867177947    0.2675562026    0.0324586265
      3  O         2.5434126994   -0.3223773259   -0.3581716395
      4  C        -2.4654538770   -1.1449004030    0.1914363842
      5  N        -0.0074313747    0.1356798560   -0.6083291661
   Point Group: c1    Number of degrees of freedom:     9


   Energy is   -964.166052879

 Hessian Updated using BFGS Update

  9 Hessian modes will be used to form the next step
  Hessian Eigenvalues:
     0.019084    0.020305    0.069685    0.249536    0.266068    0.305412
     0.493291    0.536552    1.011766

 Minimum Search - Taking Simple RFO Step
 Searching for Lamda that Minimizes Along All modes
 Value Taken    Lamda =  -0.02946635
 Calculated Step too Large.  Step scaled by  0.527260
 Step Taken.  Stepsize is  0.300000

                             Maximum     Tolerance    Cnvgd?
         Gradient           0.031782      0.000300      NO
         Displacement       0.161144      0.001200      NO
         Energy change     -0.020061      0.000001      NO


 New Cartesian Coordinates Obtained by Inverse Iteration

 Displacement from previous Coordinates is:  0.357384
 ----------------------------------------------------------------
             Standard Nuclear Orientation (Angstroms)
    I     Atom           X                Y                Z
 ----------------------------------------------------------------
    1      S       1.2661979880     0.0494584699     0.3771690397
    2      S      -1.6189661947     0.1992195020     0.0437722630
    3      O       2.6112404738    -0.2373957064    -0.3484151865
    4      C      -2.4988413978    -1.0563065161     0.2115817416
    5      N       0.0041817612     0.1074341392    -0.6481801738
 ----------------------------------------------------------------
 Molecular Point Group                 C1    NOp =  1
 Largest Abelian Subgroup              C1    NOp =  1
 Nuclear Repulsion Energy =   245.6075198027 hartrees
 There are       28 alpha and       27 beta electrons
 Applying Cartesian multipole field
    Component          Value
    ---------          -----
     (2,0,0)        1.00000E-11
     (0,2,0)        2.00000E-11
     (0,0,2)       -3.00000E-11
 Nucleus-field energy     =     0.0000000056 hartrees
 Requested basis set is 6-311++G(d)
 There are 44 shells and 126 basis functions
 A cutoff of  1.0D-12 yielded    881 shell pairs
 There are      7538 function pairs (      8154 Cartesian)
 Smallest overlap matrix eigenvalue = 2.60E-04
 Guess MOs from SCF MO coefficient file
 Reading MOs from coefficient file
 Reading MOs from coefficient file

 -----------------------------------------------------------------------
  General SCF calculation program by
  Eric Jon Sundstrom, Paul Horn, Yuezhi Mao, Dmitri Zuev, Alec White,
  David Stuck, Shaama M.S., Shane Yost, Joonho Lee, David Small,
  Daniel Levine, Susi Lehtola, Hugh Burton, Evgeny Epifanovsky
 -----------------------------------------------------------------------
 Exchange:     0.2220 Hartree-Fock + 1.0000 wB97X-D + LR-HF
 Correlation:  1.0000 wB97X-D
 Using SG-2 standard quadrature grid
 Dispersion:   Grimme D
 using 24 threads for integral computing
 -------------------------------------------------------
 OpenMP Integral computing Module                
 Release: version 1.0, May 2013, Q-Chem Inc. Pittsburgh 
 -------------------------------------------------------
 using 24 threads for integral computing
 -------------------------------------------------------
 OpenMP Integral computing Module                
 Release: version 1.0, May 2013, Q-Chem Inc. Pittsburgh 
 -------------------------------------------------------
 -------------------------------------------------------
 OpenMP BLAS3 based DFT computing Module                
 Release: version 1.0, May 2013, Q-Chem Inc. Pittsburgh 
 -------------------------------------------------------
 A unrestricted SCF calculation will be
 performed using Roothaan-Hall, GDM
 SCF converges when RMS gradient is below 1.0e-08
 ---------------------------------------
  Cycle       Energy         DIIS error
 ---------------------------------------
    1    -964.1467169065      1.29e-03  Roothaan Step
 ---------------------------------------
  Cycle       Energy        RMS Gradient
 ---------------------------------------
    1    -964.1675126676      2.90e-02   Normal BFGS step
    2    -964.1670040222      2.47e-02  Line search: overstep
    3    -964.1708360155      8.85e-03   Normal BFGS step
    4    -964.1721278763      5.20e-03   Normal BFGS step
    5    -964.1722530737      7.95e-03   Normal BFGS step
    6    -964.1724624623      1.82e-03   Normal BFGS step
    7    -964.1724912808      1.66e-03   Normal BFGS step
    8    -964.1725145399      1.18e-03   Normal BFGS step
    9    -964.1725262827      7.02e-04   Normal BFGS step
   10    -964.1725332551      5.51e-04   Normal BFGS step
   11    -964.1725379500      4.21e-04   Normal BFGS step
   12    -964.1725396735      1.95e-04   Normal BFGS step
   13    -964.1725402858      1.07e-04   Normal BFGS step
   14    -964.1725404496      3.53e-05   Normal BFGS step
   15    -964.1725404786      1.78e-05   Normal BFGS step
   16    -964.1725404850      9.13e-06   Normal BFGS step
   17    -964.1725404869      5.12e-06   Normal BFGS step
   18    -964.1725404874      2.19e-06   Normal BFGS step
   19    -964.1725404874      8.24e-07   Normal BFGS step
   20    -964.1725404874      4.44e-07   Normal BFGS step
   21    -964.1725404874      2.18e-07   Normal BFGS step
   22    -964.1725404874      9.88e-08   Normal BFGS step
   23    -964.1725404874      4.19e-08   Normal BFGS step
   24    -964.1725404874      1.98e-08   Normal BFGS step
   25    -964.1725404874      2.66e-08   Normal BFGS step
   26    -964.1725404874      8.16e-09  Convergence criterion met
 ---------------------------------------
 SCF time:   CPU 324.94s  wall 15.00s 
 SCF   energy in the final basis set =     -964.1725404874
<S^2> =          0.756821805
 
 --------------------------------------------------------------
 
                    Orbital Energies (a.u.)
 --------------------------------------------------------------
 
 Alpha MOs
 -- Occupied --
-88.754 -88.716 -18.886 -14.082  -9.947  -7.791  -7.758  -5.740
 -5.737  -5.735  -5.707  -5.702  -5.701  -0.769  -0.648  -0.538
 -0.372  -0.256  -0.171  -0.166  -0.143  -0.090  -0.056  -0.041
 -0.007   0.002   0.083   0.093
 -- Virtual --
  0.305   0.311   0.318   0.332   0.337   0.345   0.355   0.370
  0.381   0.391   0.407   0.425   0.462   0.479   0.493   0.508
  0.516   0.530   0.544   0.560   0.580   0.587   0.607   0.621
  0.658   0.682   0.688   0.699   0.730   0.758   0.797   0.946
  1.002   1.016   1.066   1.087   1.113   1.114   1.132   1.156
  1.159   1.178   1.275   1.347   1.358   1.376   1.420   1.433
  1.476   1.509   1.529   1.552   1.584   1.687   1.814   1.819
  1.968   2.017   2.037   2.053   2.114   2.127   2.166   2.235
  2.276   2.476   2.509   2.562   2.578   2.890   3.009   3.224
  3.247   3.266   3.270   3.347   3.387   3.616   3.820   4.278
  4.336   4.493   5.439   5.457   5.521   8.380   8.401  17.709
 17.745  17.786  17.810  17.882  17.944  23.965  35.829  50.337
189.634 189.671
 
 Beta MOs
 -- Occupied --
-88.752 -88.716 -18.882 -14.073  -9.947  -7.788  -7.758  -5.738
 -5.734  -5.728  -5.707  -5.702  -5.701  -0.758  -0.634  -0.533
 -0.355  -0.246  -0.161  -0.150  -0.123  -0.082  -0.045  -0.027
  0.012   0.028   0.088
 -- Virtual --
  0.301   0.309   0.317   0.322   0.332   0.341   0.348   0.355
  0.371   0.381   0.391   0.407   0.426   0.467   0.484   0.495
  0.510   0.520   0.533   0.546   0.566   0.584   0.589   0.608
  0.623   0.660   0.685   0.692   0.700   0.732   0.761   0.799
  0.948   1.002   1.017   1.070   1.093   1.121   1.138   1.143
  1.163   1.176   1.180   1.276   1.355   1.364   1.389   1.423
  1.439   1.489   1.514   1.539   1.555   1.586   1.699   1.814
  1.819   1.973   2.019   2.053   2.060   2.116   2.131   2.170
  2.241   2.281   2.485   2.531   2.588   2.592   2.908   3.022
  3.223   3.248   3.279   3.283   3.361   3.390   3.617   3.827
  4.320   4.347   4.504   5.457   5.461   5.525   8.381   8.403
 17.718  17.745  17.787  17.811  17.883  17.944  23.965  35.840
 50.341 189.635 189.671
 --------------------------------------------------------------
 
          Ground-State Mulliken Net Atomic Charges

     Atom                 Charge (a.u.)    Spin (a.u.)
  --------------------------------------------------------
      1 S                     0.022025       0.452051
      2 S                    -0.460714      -0.009932
      3 O                    -0.570552       0.120608
      4 C                    -0.690157       0.018686
      5 N                    -0.300602       0.418588
  --------------------------------------------------------
  Sum of atomic charges =    -2.000000
  Sum of spin   charges =     1.000000

 -----------------------------------------------------------------
                    Cartesian Multipole Moments
 -----------------------------------------------------------------
    Charge (ESU x 10^10)
                -9.6064
    Dipole Moment (Debye)
         X       3.0932      Y       4.6247      Z       1.4417
       Tot       5.7475
    Quadrupole Moments (Debye-Ang)
        XX    -107.5339     XY     -10.3531     YY     -62.4593
        XZ       6.2569     YZ       0.4543     ZZ     -56.0126
    Octopole Moments (Debye-Ang^2)
       XXX      64.6406    XXY      46.9394    XYY      33.3253
       YYY      36.3624    XXZ      -4.5623    XYZ      -4.0006
       YYZ      -2.7613    XZZ       9.2666    YZZ       7.0428
       ZZZ      -1.5076
    Hexadecapole Moments (Debye-Ang^3)
      XXXX   -1556.7160   XXXY    -138.7089   XXYY    -275.0396
      XYYY     -91.8070   YYYY    -216.2100   XXXZ      79.0459
      XXYZ       7.7946   XYYZ       7.7573   YYYZ       4.5677
      XXZZ    -213.2155   XYZZ     -18.4552   YYZZ     -55.0769
      XZZZ      18.4756   YZZZ       3.8830   ZZZZ    -138.2388
 -----------------------------------------------------------------
 Calculating analytic gradient of the SCF energy
 Gradient of SCF Energy
            1           2           3           4           5
    1   0.0041327   0.0064621  -0.0006728   0.0208115  -0.0307336
    2   0.0011200  -0.0334510  -0.0013645   0.0301001   0.0035954
    3   0.0019129  -0.0080612   0.0004653  -0.0040215   0.0097045
 Max gradient component =       3.345E-02
 RMS gradient           =       1.561E-02
 Gradient time:  CPU 21.44 s  wall 1.15 s
 Geometry Optimization Parameters
   NAtoms,    NIC,     NZ,  NCons,   NDum,   NFix, NCnnct, MaxDiis
        5      19       0       0       0       0       0       0

 Cartesian Hessian Update
 Hessian Updated using BFGS Update


** GEOMETRY OPTIMIZATION IN DELOCALIZED INTERNAL COORDINATES **
   Searching for a Minimum

   Optimization Cycle:   4

                       Coordinates (Angstroms)
     ATOM                X               Y               Z
      1  S         1.2661979880    0.0494584699    0.3771690397
      2  S        -1.6189661947    0.1992195020    0.0437722630
      3  O         2.6112404738   -0.2373957064   -0.3484151865
      4  C        -2.4988413978   -1.0563065161    0.2115817416
      5  N         0.0041817612    0.1074341392   -0.6481801738
   Point Group: c1    Number of degrees of freedom:     9


   Energy is   -964.172540487

 Hessian Updated using BFGS Update

  9 Hessian modes will be used to form the next step
  Hessian Eigenvalues:
     0.020146    0.020268    0.201707    0.251627    0.290470    0.303430
     0.530455    0.565952    1.010368

 Minimum Search - Taking Simple RFO Step
 Searching for Lamda that Minimizes Along All modes
 Value Taken    Lamda =  -0.00482947
 Step Taken.  Stepsize is  0.181383

                             Maximum     Tolerance    Cnvgd?
         Gradient           0.028065      0.000300      NO
         Displacement       0.103882      0.001200      NO
         Energy change     -0.006488      0.000001      NO


 New Cartesian Coordinates Obtained by Inverse Iteration

 Displacement from previous Coordinates is:  0.280651
 ----------------------------------------------------------------
             Standard Nuclear Orientation (Angstroms)
    I     Atom           X                Y                Z
 ----------------------------------------------------------------
    1      S       1.2689439945    -0.0277572853     0.3830112040
    2      S      -1.6143072159     0.2181051435     0.0336212605
    3      O       2.6330057449    -0.1482560681    -0.3514938624
    4      C      -2.5540083177    -1.0372657450     0.2318261934
    5      N       0.0301784248     0.0575838435    -0.6610371116
 ----------------------------------------------------------------
 Molecular Point Group                 C1    NOp =  1
 Largest Abelian Subgroup              C1    NOp =  1
 Nuclear Repulsion Energy =   244.0836511033 hartrees
 There are       28 alpha and       27 beta electrons
 Applying Cartesian multipole field
    Component          Value
    ---------          -----
     (2,0,0)        1.00000E-11
     (0,2,0)        2.00000E-11
     (0,0,2)       -3.00000E-11
 Nucleus-field energy     =     0.0000000056 hartrees
 Requested basis set is 6-311++G(d)
 There are 44 shells and 126 basis functions
 A cutoff of  1.0D-12 yielded    882 shell pairs
 There are      7554 function pairs (      8170 Cartesian)
 Smallest overlap matrix eigenvalue = 2.86E-04
 Guess MOs from SCF MO coefficient file
 Reading MOs from coefficient file
 Reading MOs from coefficient file

 -----------------------------------------------------------------------
  General SCF calculation program by
  Eric Jon Sundstrom, Paul Horn, Yuezhi Mao, Dmitri Zuev, Alec White,
  David Stuck, Shaama M.S., Shane Yost, Joonho Lee, David Small,
  Daniel Levine, Susi Lehtola, Hugh Burton, Evgeny Epifanovsky
 -----------------------------------------------------------------------
 Exchange:     0.2220 Hartree-Fock + 1.0000 wB97X-D + LR-HF
 Correlation:  1.0000 wB97X-D
 Using SG-2 standard quadrature grid
 Dispersion:   Grimme D
 using 24 threads for integral computing
 -------------------------------------------------------
 OpenMP Integral computing Module                
 Release: version 1.0, May 2013, Q-Chem Inc. Pittsburgh 
 -------------------------------------------------------
 using 24 threads for integral computing
 -------------------------------------------------------
 OpenMP Integral computing Module                
 Release: version 1.0, May 2013, Q-Chem Inc. Pittsburgh 
 -------------------------------------------------------
 -------------------------------------------------------
 OpenMP BLAS3 based DFT computing Module                
 Release: version 1.0, May 2013, Q-Chem Inc. Pittsburgh 
 -------------------------------------------------------
 A unrestricted SCF calculation will be
 performed using Roothaan-Hall, GDM
 SCF converges when RMS gradient is below 1.0e-08
 ---------------------------------------
  Cycle       Energy         DIIS error
 ---------------------------------------
    1    -964.1640127238      8.60e-04  Roothaan Step
 ---------------------------------------
  Cycle       Energy        RMS Gradient
 ---------------------------------------
    1    -964.1744030535      6.99e-03   Normal BFGS step
    2    -964.1750167382      8.93e-03   Normal BFGS step
    3    -964.1756920399      2.78e-03   Normal BFGS step
    4    -964.1757560415      1.43e-03   Normal BFGS step
    5    -964.1757961553      8.43e-04   Normal BFGS step
    6    -964.1758045667      4.11e-04   Normal BFGS step
    7    -964.1758066272      2.25e-04   Normal BFGS step
    8    -964.1758070079      1.67e-04   Normal BFGS step
    9    -964.1758071992      1.05e-04   Normal BFGS step
   10    -964.1758073306      7.55e-05   Normal BFGS step
   11    -964.1758074078      5.98e-05   Normal BFGS step
   12    -964.1758074594      4.15e-05   Normal BFGS step
   13    -964.1758074883      2.72e-05   Normal BFGS step
   14    -964.1758074998      1.72e-05   Normal BFGS step
   15    -964.1758075038      8.55e-06   Normal BFGS step
   16    -964.1758075048      3.65e-06   Normal BFGS step
   17    -964.1758075050      2.40e-06   Normal BFGS step
   18    -964.1758075050      1.03e-06   Normal BFGS step
   19    -964.1758075050      3.50e-07   Normal BFGS step
   20    -964.1758075050      1.54e-07   Normal BFGS step
   21    -964.1758075050      7.29e-08   Normal BFGS step
   22    -964.1758075050      4.11e-08   Normal BFGS step
   23    -964.1758075050      2.81e-08   Normal BFGS step
   24    -964.1758075050      1.56e-08   Normal BFGS step
   25    -964.1758075050      4.66e-09  Convergence criterion met
 ---------------------------------------
 SCF time:   CPU 313.11s  wall 14.00s 
 SCF   energy in the final basis set =     -964.1758075050
<S^2> =          0.756803938
 
 --------------------------------------------------------------
 
                    Orbital Energies (a.u.)
 --------------------------------------------------------------
 
 Alpha MOs
 -- Occupied --
-88.753 -88.720 -18.885 -14.083  -9.958  -7.790  -7.761  -5.739
 -5.736  -5.735  -5.710  -5.705  -5.704  -0.769  -0.643  -0.534
 -0.368  -0.258  -0.169  -0.165  -0.145  -0.086  -0.056  -0.043
 -0.009   0.002   0.084   0.092
 -- Virtual --
  0.306   0.311   0.317   0.332   0.335   0.344   0.354   0.369
  0.380   0.390   0.407   0.423   0.460   0.479   0.491   0.503
  0.513   0.528   0.544   0.555   0.580   0.587   0.607   0.620
  0.660   0.682   0.689   0.700   0.731   0.754   0.787   0.947
  0.998   1.012   1.062   1.085   1.111   1.114   1.135   1.153
  1.157   1.176   1.268   1.335   1.353   1.373   1.418   1.436
  1.473   1.512   1.528   1.549   1.555   1.692   1.808   1.814
  1.969   1.996   2.026   2.038   2.106   2.126   2.166   2.236
  2.275   2.457   2.496   2.552   2.577   2.875   3.014   3.214
  3.236   3.267   3.272   3.349   3.389   3.574   3.822   4.277
  4.334   4.492   5.440   5.458   5.523   8.354   8.403  17.709
 17.744  17.785  17.808  17.882  17.919  23.928  35.829  50.339
189.620 189.653
 
 Beta MOs
 -- Occupied --
-88.751 -88.720 -18.881 -14.075  -9.958  -7.788  -7.761  -5.738
 -5.733  -5.727  -5.710  -5.705  -5.704  -0.758  -0.629  -0.528
 -0.350  -0.247  -0.159  -0.151  -0.122  -0.080  -0.045  -0.030
  0.011   0.027   0.087
 -- Virtual --
  0.301   0.309   0.316   0.322   0.333   0.338   0.348   0.354
  0.369   0.380   0.390   0.407   0.423   0.464   0.483   0.493
  0.506   0.517   0.531   0.545   0.562   0.583   0.589   0.607
  0.622   0.662   0.685   0.692   0.701   0.733   0.756   0.790
  0.949   0.998   1.012   1.065   1.090   1.119   1.138   1.145
  1.160   1.173   1.179   1.269   1.343   1.359   1.386   1.421
  1.443   1.487   1.517   1.538   1.552   1.557   1.704   1.807
  1.814   1.974   1.997   2.027   2.060   2.108   2.130   2.170
  2.241   2.280   2.460   2.523   2.581   2.592   2.893   3.028
  3.213   3.236   3.280   3.284   3.362   3.392   3.574   3.829
  4.320   4.345   4.503   5.456   5.462   5.527   8.355   8.405
 17.718  17.744  17.785  17.809  17.884  17.919  23.928  35.839
 50.342 189.621 189.654
 --------------------------------------------------------------
 
          Ground-State Mulliken Net Atomic Charges

     Atom                 Charge (a.u.)    Spin (a.u.)
  --------------------------------------------------------
      1 S                     0.021536       0.450314
      2 S                    -0.395577       0.012165
      3 O                    -0.579327       0.115630
      4 C                    -0.725976      -0.007948
      5 N                    -0.320656       0.429839
  --------------------------------------------------------
  Sum of atomic charges =    -2.000000
  Sum of spin   charges =     1.000000

 -----------------------------------------------------------------
                    Cartesian Multipole Moments
 -----------------------------------------------------------------
    Charge (ESU x 10^10)
                -9.6064
    Dipole Moment (Debye)
         X       3.0622      Y       4.3390      Z       1.4015
       Tot       5.4926
    Quadrupole Moments (Debye-Ang)
        XX    -108.9520     XY     -10.6804     YY     -61.8841
        XZ       6.6320     YZ       0.5741     ZZ     -56.1750
    Octopole Moments (Debye-Ang^2)
       XXX      67.6361    XXY      44.8115    XYY      33.1334
       YYY      37.4602    XXZ      -5.2116    XYZ      -3.5444
       YYZ      -3.0887    XZZ       9.2273    YZZ       7.3317
       ZZZ      -1.5820
    Hexadecapole Moments (Debye-Ang^3)
      XXXX   -1603.3200   XXXY    -142.4216   XXYY    -275.2977
      XYYY     -89.7966   YYYY    -209.3844   XXXZ      85.1765
      XXYZ       9.8843   XYYZ       8.4506   YYYZ       6.8421
      XXZZ    -217.2581   XYZZ     -18.0862   YYZZ     -54.4699
      XZZZ      20.1842   YZZZ       5.1069   ZZZZ    -139.6327
 -----------------------------------------------------------------
 Calculating analytic gradient of the SCF energy
 Gradient of SCF Energy
            1           2           3           4           5
    1   0.0026899   0.0179276  -0.0020613   0.0011710  -0.0197273
    2   0.0009618  -0.0053495  -0.0011937   0.0017534   0.0038281
    3   0.0005623  -0.0089560   0.0000854  -0.0001160   0.0084243
 Max gradient component =       1.973E-02
 RMS gradient           =       7.847E-03
 Gradient time:  CPU 21.54 s  wall 1.13 s
 Geometry Optimization Parameters
   NAtoms,    NIC,     NZ,  NCons,   NDum,   NFix, NCnnct, MaxDiis
        5      19       0       0       0       0       0       0

 Cartesian Hessian Update
 Hessian Updated using BFGS Update


** GEOMETRY OPTIMIZATION IN DELOCALIZED INTERNAL COORDINATES **
   Searching for a Minimum

   Optimization Cycle:   5

                       Coordinates (Angstroms)
     ATOM                X               Y               Z
      1  S         1.2689439945   -0.0277572853    0.3830112040
      2  S        -1.6143072159    0.2181051435    0.0336212605
      3  O         2.6330057449   -0.1482560681   -0.3514938624
      4  C        -2.5540083177   -1.0372657450    0.2318261934
      5  N         0.0301784248    0.0575838435   -0.6610371116
   Point Group: c1    Number of degrees of freedom:     9


   Energy is   -964.175807505

 Hessian Updated using BFGS Update

  9 Hessian modes will be used to form the next step
  Hessian Eigenvalues:
     0.014785    0.020277    0.184883    0.250183    0.287400    0.321859
     0.516896    0.535429    1.011608

 Minimum Search - Taking Simple RFO Step
 Searching for Lamda that Minimizes Along All modes
 Value Taken    Lamda =  -0.00403251
 Calculated Step too Large.  Step scaled by  0.878968
 Step Taken.  Stepsize is  0.300000

                             Maximum     Tolerance    Cnvgd?
         Gradient           0.014757      0.000300      NO
         Displacement       0.163269      0.001200      NO
         Energy change     -0.003267      0.000001      NO


 New Cartesian Coordinates Obtained by Inverse Iteration

 Displacement from previous Coordinates is:  0.518645
 ----------------------------------------------------------------
             Standard Nuclear Orientation (Angstroms)
    I     Atom           X                Y                Z
 ----------------------------------------------------------------
    1      S       1.2736620557    -0.1745010219     0.3605553698
    2      S      -1.6100236838     0.2260181823     0.0368292379
    3      O       2.6623327897     0.0198960294    -0.3224773198
    4      C      -2.6261303369    -0.9706138553     0.2666426569
    5      N       0.0639718058    -0.0383894459    -0.7056222608
 ----------------------------------------------------------------
 Molecular Point Group                 C1    NOp =  1
 Largest Abelian Subgroup              C1    NOp =  1
 Nuclear Repulsion Energy =   242.2506094784 hartrees
 There are       28 alpha and       27 beta electrons
 Applying Cartesian multipole field
    Component          Value
    ---------          -----
     (2,0,0)        1.00000E-11
     (0,2,0)        2.00000E-11
     (0,0,2)       -3.00000E-11
 Nucleus-field energy     =     0.0000000057 hartrees
 Requested basis set is 6-311++G(d)
 There are 44 shells and 126 basis functions
 A cutoff of  1.0D-12 yielded    879 shell pairs
 There are      7516 function pairs (      8121 Cartesian)
 Smallest overlap matrix eigenvalue = 2.92E-04
 Guess MOs from SCF MO coefficient file
 Reading MOs from coefficient file
 Reading MOs from coefficient file

 -----------------------------------------------------------------------
  General SCF calculation program by
  Eric Jon Sundstrom, Paul Horn, Yuezhi Mao, Dmitri Zuev, Alec White,
  David Stuck, Shaama M.S., Shane Yost, Joonho Lee, David Small,
  Daniel Levine, Susi Lehtola, Hugh Burton, Evgeny Epifanovsky
 -----------------------------------------------------------------------
 Exchange:     0.2220 Hartree-Fock + 1.0000 wB97X-D + LR-HF
 Correlation:  1.0000 wB97X-D
 Using SG-2 standard quadrature grid
 Dispersion:   Grimme D
 using 24 threads for integral computing
 -------------------------------------------------------
 OpenMP Integral computing Module                
 Release: version 1.0, May 2013, Q-Chem Inc. Pittsburgh 
 -------------------------------------------------------
 using 24 threads for integral computing
 -------------------------------------------------------
 OpenMP Integral computing Module                
 Release: version 1.0, May 2013, Q-Chem Inc. Pittsburgh 
 -------------------------------------------------------
 -------------------------------------------------------
 OpenMP BLAS3 based DFT computing Module                
 Release: version 1.0, May 2013, Q-Chem Inc. Pittsburgh 
 -------------------------------------------------------
 A unrestricted SCF calculation will be
 performed using Roothaan-Hall, GDM
 SCF converges when RMS gradient is below 1.0e-08
 ---------------------------------------
  Cycle       Energy         DIIS error
 ---------------------------------------
    1    -964.1393292492      1.55e-03  Roothaan Step
 ---------------------------------------
  Cycle       Energy        RMS Gradient
 ---------------------------------------
    1    -964.1738947173      1.33e-02   Normal BFGS step
    2    -964.1763078681      1.58e-02   Normal BFGS step
    3    -964.1781850494      4.24e-03   Normal BFGS step
    4    -964.1783861378      4.90e-03   Normal BFGS step
    5    -964.1785084067      1.61e-03   Normal BFGS step
    6    -964.1785537910      8.19e-04   Normal BFGS step
    7    -964.1785613482      4.56e-04   Normal BFGS step
    8    -964.1785646118      4.20e-04   Normal BFGS step
    9    -964.1785659277      3.28e-04   Normal BFGS step
   10    -964.1785670374      1.93e-04   Normal BFGS step
   11    -964.1785678372      1.43e-04   Normal BFGS step
   12    -964.1785681592      9.59e-05   Normal BFGS step
   13    -964.1785683139      5.42e-05   Normal BFGS step
   14    -964.1785683547      2.72e-05   Normal BFGS step
   15    -964.1785683640      1.53e-05   Normal BFGS step
   16    -964.1785683661      5.75e-06   Normal BFGS step
   17    -964.1785683664      2.38e-06   Normal BFGS step
   18    -964.1785683665      1.05e-06   Normal BFGS step
   19    -964.1785683665      6.12e-07   Normal BFGS step
   20    -964.1785683665      3.20e-07   Normal BFGS step
   21    -964.1785683665      1.29e-07   Normal BFGS step
   22    -964.1785683665      6.63e-08   Normal BFGS step
   23    -964.1785683665      3.57e-08   Normal BFGS step
   24    -964.1785683665      5.24e-08   Normal BFGS step
   25    -964.1785683665      7.95e-09  Convergence criterion met
 ---------------------------------------
 SCF time:   CPU 304.23s  wall 14.00s 
 SCF   energy in the final basis set =     -964.1785683665
<S^2> =          0.757922019
 
 --------------------------------------------------------------
 
                    Orbital Energies (a.u.)
 --------------------------------------------------------------
 
 Alpha MOs
 -- Occupied --
-88.749 -88.722 -18.881 -14.082  -9.966  -7.786  -7.762  -5.735
 -5.732  -5.731  -5.711  -5.707  -5.706  -0.762  -0.634  -0.536
 -0.360  -0.257  -0.164  -0.161  -0.143  -0.082  -0.055  -0.045
 -0.011   0.002   0.079   0.095
 -- Virtual --
  0.308   0.312   0.316   0.329   0.336   0.342   0.353   0.368
  0.379   0.389   0.410   0.420   0.454   0.479   0.490   0.497
  0.511   0.530   0.547   0.552   0.577   0.586   0.606   0.622
  0.664   0.681   0.692   0.701   0.735   0.750   0.784   0.945
  0.993   1.006   1.055   1.081   1.109   1.117   1.133   1.156
  1.158   1.178   1.256   1.312   1.348   1.367   1.414   1.441
  1.469   1.517   1.527   1.546   1.559   1.705   1.801   1.809
  1.977   1.988   2.015   2.042   2.101   2.120   2.164   2.217
  2.274   2.453   2.490   2.550   2.580   2.846   3.025   3.206
  3.228   3.272   3.276   3.351   3.389   3.561   3.819   4.280
  4.333   4.492   5.444   5.464   5.523   8.328   8.400  17.712
 17.742  17.782  17.807  17.883  17.917  23.914  35.831  50.344
189.598 189.644
 
 Beta MOs
 -- Occupied --
-88.747 -88.722 -18.877 -14.073  -9.966  -7.784  -7.762  -5.734
 -5.729  -5.724  -5.711  -5.707  -5.706  -0.752  -0.619  -0.531
 -0.342  -0.247  -0.154  -0.149  -0.118  -0.078  -0.047  -0.031
  0.011   0.028   0.083
 -- Virtual --
  0.302   0.310   0.315   0.322   0.331   0.340   0.347   0.352
  0.367   0.379   0.390   0.410   0.419   0.457   0.482   0.493
  0.501   0.514   0.533   0.548   0.559   0.580   0.589   0.606
  0.623   0.666   0.683   0.695   0.704   0.737   0.752   0.787
  0.945   0.993   1.006   1.057   1.087   1.119   1.130   1.152
  1.162   1.169   1.186   1.257   1.318   1.354   1.379   1.419
  1.447   1.484   1.521   1.534   1.551   1.562   1.717   1.800
  1.808   1.981   1.990   2.015   2.064   2.104   2.124   2.168
  2.222   2.280   2.454   2.517   2.580   2.595   2.866   3.039
  3.206   3.227   3.284   3.288   3.364   3.393   3.561   3.826
  4.324   4.344   4.503   5.460   5.469   5.527   8.328   8.401
 17.721  17.742  17.782  17.808  17.885  17.917  23.914  35.842
 50.348 189.598 189.645
 --------------------------------------------------------------
 
          Ground-State Mulliken Net Atomic Charges

     Atom                 Charge (a.u.)    Spin (a.u.)
  --------------------------------------------------------
      1 S                     0.006414       0.440364
      2 S                    -0.325736       0.075368
      3 O                    -0.591076       0.114136
      4 C                    -0.724023      -0.055889
      5 N                    -0.365579       0.426020
  --------------------------------------------------------
  Sum of atomic charges =    -2.000000
  Sum of spin   charges =     1.000000

 -----------------------------------------------------------------
                    Cartesian Multipole Moments
 -----------------------------------------------------------------
    Charge (ESU x 10^10)
                -9.6064
    Dipole Moment (Debye)
         X       2.6335      Y       3.7614      Z       1.3757
       Tot       4.7933
    Quadrupole Moments (Debye-Ang)
        XX    -110.4241     XY     -11.3102     YY     -60.6745
        XZ       6.8821     YZ       0.7834     ZZ     -56.4184
    Octopole Moments (Debye-Ang^2)
       XXX      66.4398    XXY      40.6121    XYY      31.0134
       YYY      38.6774    XXZ      -6.7420    XYZ      -2.4427
       YYZ      -2.9617    XZZ       9.1000    YZZ       8.1791
       ZZZ      -0.8144
    Hexadecapole Moments (Debye-Ang^3)
      XXXX   -1654.4978   XXXY    -149.1697   XXYY    -274.6724
      XYYY     -82.3953   YYYY    -195.0316   XXXZ      91.8259
      XXYZ      13.2929   XYYZ       9.8533   YYYZ      10.3262
      XXZZ    -221.5969   XYZZ     -17.2644   YYZZ     -52.8290
      XZZZ      23.7129   YZZZ       6.9943   ZZZZ    -141.6854
 -----------------------------------------------------------------
 Calculating analytic gradient of the SCF energy
 Gradient of SCF Energy
            1           2           3           4           5
    1   0.0001387   0.0163812  -0.0012260  -0.0045106  -0.0107833
    2  -0.0004328   0.0029115  -0.0005549  -0.0057544   0.0038306
    3   0.0037000  -0.0073611  -0.0019203   0.0016206   0.0039608
 Max gradient component =       1.638E-02
 RMS gradient           =       6.072E-03
 Gradient time:  CPU 21.34 s  wall 1.12 s
 Geometry Optimization Parameters
   NAtoms,    NIC,     NZ,  NCons,   NDum,   NFix, NCnnct, MaxDiis
        5      19       0       0       0       0       0       0

 Cartesian Hessian Update
 Hessian Updated using BFGS Update


** GEOMETRY OPTIMIZATION IN DELOCALIZED INTERNAL COORDINATES **
   Searching for a Minimum

   Optimization Cycle:   6

                       Coordinates (Angstroms)
     ATOM                X               Y               Z
      1  S         1.2736620557   -0.1745010219    0.3605553698
      2  S        -1.6100236838    0.2260181823    0.0368292379
      3  O         2.6623327897    0.0198960294   -0.3224773198
      4  C        -2.6261303369   -0.9706138553    0.2666426569
      5  N         0.0639718058   -0.0383894459   -0.7056222608
   Point Group: c1    Number of degrees of freedom:     9


   Energy is   -964.178568367

 Hessian Updated using BFGS Update

  9 Hessian modes will be used to form the next step
  Hessian Eigenvalues:
     0.010492    0.021601    0.123785    0.250171    0.276671    0.321639
     0.534427    0.579754    1.014364

 Minimum Search - Taking Simple RFO Step
 Searching for Lamda that Minimizes Along All modes
 Value Taken    Lamda =  -0.00372364
 Calculated Step too Large.  Step scaled by  0.734940
 Step Taken.  Stepsize is  0.300000

                             Maximum     Tolerance    Cnvgd?
         Gradient           0.010271      0.000300      NO
         Displacement       0.139031      0.001200      NO
         Energy change     -0.002761      0.000001      NO


 New Cartesian Coordinates Obtained by Inverse Iteration

 Displacement from previous Coordinates is:  0.509845
 ----------------------------------------------------------------
             Standard Nuclear Orientation (Angstroms)
    I     Atom           X                Y                Z
 ----------------------------------------------------------------
    1      S       1.2990903537    -0.2901703731     0.3091519461
    2      S      -1.6007629927     0.2174794288     0.0702768234
    3      O       2.6758486811     0.1763720150    -0.2737584877
    4      C      -2.7035610911    -0.8921175489     0.2832860115
    5      N       0.0931976795    -0.1491536332    -0.7530286093
 ----------------------------------------------------------------
 Molecular Point Group                 C1    NOp =  1
 Largest Abelian Subgroup              C1    NOp =  1
 Nuclear Repulsion Energy =   240.2890108378 hartrees
 There are       28 alpha and       27 beta electrons
 Applying Cartesian multipole field
    Component          Value
    ---------          -----
     (2,0,0)        1.00000E-11
     (0,2,0)        2.00000E-11
     (0,0,2)       -3.00000E-11
 Nucleus-field energy     =     0.0000000058 hartrees
 Requested basis set is 6-311++G(d)
 There are 44 shells and 126 basis functions
 A cutoff of  1.0D-12 yielded    876 shell pairs
 There are      7480 function pairs (      8081 Cartesian)
 Smallest overlap matrix eigenvalue = 2.87E-04
 Guess MOs from SCF MO coefficient file
 Reading MOs from coefficient file
 Reading MOs from coefficient file

 -----------------------------------------------------------------------
  General SCF calculation program by
  Eric Jon Sundstrom, Paul Horn, Yuezhi Mao, Dmitri Zuev, Alec White,
  David Stuck, Shaama M.S., Shane Yost, Joonho Lee, David Small,
  Daniel Levine, Susi Lehtola, Hugh Burton, Evgeny Epifanovsky
 -----------------------------------------------------------------------
 Exchange:     0.2220 Hartree-Fock + 1.0000 wB97X-D + LR-HF
 Correlation:  1.0000 wB97X-D
 Using SG-2 standard quadrature grid
 Dispersion:   Grimme D
 using 24 threads for integral computing
 -------------------------------------------------------
 OpenMP Integral computing Module                
 Release: version 1.0, May 2013, Q-Chem Inc. Pittsburgh 
 -------------------------------------------------------
 using 24 threads for integral computing
 -------------------------------------------------------
 OpenMP Integral computing Module                
 Release: version 1.0, May 2013, Q-Chem Inc. Pittsburgh 
 -------------------------------------------------------
 -------------------------------------------------------
 OpenMP BLAS3 based DFT computing Module                
 Release: version 1.0, May 2013, Q-Chem Inc. Pittsburgh 
 -------------------------------------------------------
 A unrestricted SCF calculation will be
 performed using Roothaan-Hall, GDM
 SCF converges when RMS gradient is below 1.0e-08
 ---------------------------------------
  Cycle       Energy         DIIS error
 ---------------------------------------
    1    -964.1474538750      1.42e-03  Roothaan Step
 ---------------------------------------
  Cycle       Energy        RMS Gradient
 ---------------------------------------
    1    -964.1770010535      1.19e-02   Normal BFGS step
    2    -964.1795521932      8.26e-03   Normal BFGS step
    3    -964.1804359994      4.00e-03   Normal BFGS step
    4    -964.1808546122      2.84e-03   Normal BFGS step
    5    -964.1808692169      3.62e-03   Normal BFGS step
    6    -964.1809565620      1.16e-03   Normal BFGS step
    7    -964.1809697201      6.62e-04   Normal BFGS step
    8    -964.1809754341      5.07e-04   Normal BFGS step
    9    -964.1809780079      4.32e-04   Normal BFGS step
   10    -964.1809797536      3.06e-04   Normal BFGS step
   11    -964.1809806283      1.70e-04   Normal BFGS step
   12    -964.1809809896      9.91e-05   Normal BFGS step
   13    -964.1809811540      9.60e-05   Normal BFGS step
   14    -964.1809812137      3.47e-05   Normal BFGS step
   15    -964.1809812317      2.68e-05   Normal BFGS step
   16    -964.1809812399      1.66e-05   Normal BFGS step
   17    -964.1809812423      6.98e-06   Normal BFGS step
   18    -964.1809812430      3.59e-06   Normal BFGS step
   19    -964.1809812432      1.34e-06   Normal BFGS step
   20    -964.1809812432      5.00e-07   Normal BFGS step
   21    -964.1809812432      2.47e-07   Normal BFGS step
[...]
<S^2> =          0.757757031
 
 --------------------------------------------------------------
 
                    Orbital Energies (a.u.)
 --------------------------------------------------------------
 
 Alpha MOs
 -- Occupied --
-88.886 -88.763 -19.000 -14.187 -10.087  -7.921  -7.810  -5.869
 -5.867  -5.864  -5.757  -5.756  -5.754  -0.901  -0.741  -0.628
 -0.413  -0.346  -0.281  -0.276  -0.238  -0.167  -0.150  -0.132
 -0.130  -0.129  -0.086   0.015
 -- Virtual --
  0.227   0.229   0.230   0.234   0.248   0.248   0.251   0.255
  0.256   0.258   0.308   0.322   0.331   0.360   0.372   0.396
  0.400   0.420   0.433   0.435   0.454   0.467   0.472   0.504
  0.561   0.562   0.589   0.592   0.609   0.651   0.698   0.816
  0.873   0.881   0.921   0.975   1.020   1.036   1.040   1.068
  1.074   1.076   1.095   1.095   1.138   1.160   1.179   1.301
  1.394   1.397   1.400   1.423   1.467   1.508   1.660   1.662
  1.823   1.864   1.865   1.921   1.974   2.032   2.033   2.081
  2.125   2.305   2.315   2.329   2.523   2.545   3.027   3.058
  3.076   3.149   3.150   3.249   3.294   3.382   3.747   4.164
  4.191   4.479   5.315   5.337   5.430   8.127   8.340  17.567
 17.649  17.673  17.675  17.782  17.849  23.742  35.706  50.216
189.385 189.578
 
 Beta MOs
 -- Occupied --
-88.886 -88.763 -19.000 -14.187 -10.077  -7.921  -7.810  -5.869
 -5.867  -5.864  -5.757  -5.756  -5.751  -0.901  -0.741  -0.613
 -0.413  -0.316  -0.281  -0.276  -0.238  -0.145  -0.130  -0.129
 -0.127  -0.111  -0.086
 -- Virtual --
  0.229   0.230   0.237   0.237   0.248   0.248   0.251   0.251
  0.255   0.258   0.258   0.307   0.338   0.351   0.360   0.372
  0.397   0.400   0.428   0.433   0.435   0.454   0.467   0.472
  0.504   0.561   0.562   0.589   0.596   0.609   0.659   0.698
  0.822   0.894   0.914   0.926   0.975   1.020   1.036   1.040
  1.068   1.078   1.094   1.102   1.102   1.155   1.160   1.179
  1.301   1.394   1.400   1.410   1.423   1.467   1.508   1.712
  1.713   1.823   1.874   1.896   1.921   1.974   2.035   2.052
  2.085   2.125   2.315   2.325   2.329   2.523   2.545   3.027
  3.100   3.128   3.149   3.150   3.249   3.294   3.400   3.747
  4.164   4.191   4.479   5.315   5.337   5.430   8.128   8.340
 17.567  17.649  17.672  17.678  17.782  17.849  23.764  35.706
 50.216 189.386 189.578
 --------------------------------------------------------------
 
          Ground-State Mulliken Net Atomic Charges

     Atom                 Charge (a.u.)    Spin (a.u.)
  --------------------------------------------------------
      1 S                     0.122456       0.000000
      2 S                    -0.346401       0.146642
      3 O                    -0.442422       0.000000
      4 C                    -0.653599       0.853358
      5 N                    -0.680034      -0.000000
  --------------------------------------------------------
  Sum of atomic charges =    -2.000000
  Sum of spin   charges =     1.000000

 -----------------------------------------------------------------
                    Cartesian Multipole Moments
 -----------------------------------------------------------------
    Charge (ESU x 10^10)
                -9.6064
    Dipole Moment (Debye)
         X      29.6769      Y       3.8162      Z      -2.9786
       Tot      30.0692
    Quadrupole Moments (Debye-Ang)
        XX   -2531.3645     XY     -69.2094     YY     -62.7973
        XZ     264.1211     YZ      14.5385     ZZ     -85.6131
    Octopole Moments (Debye-Ang^2)
       XXX   22863.5610    XXY    1377.2496    XYY     131.1935
       YYY      40.4216    XXZ   -2425.2984    XYZ     -71.1389
       YYZ      -7.5350    XZZ     326.7395    YZZ      11.5765
       ZZZ     -29.9566
    Hexadecapole Moments (Debye-Ang^3)
      XXXX -811160.7308   XXXY  -26649.8653   XXYY  -15284.5345
      XYYY   -1203.1598   YYYY    -260.8148   XXXZ   84596.3105
      XXYZ    4100.5938   XYYZ    1512.6569   YYYZ     165.2758
      XXZZ  -22591.2790   XYZZ    -947.0698   YYZZ    -229.0058
      XZZZ    4919.8456   YZZZ     229.1575   ZZZZ   -1056.0684
 -----------------------------------------------------------------
 Calculating analytic gradient of the SCF energy
 Gradient of SCF Energy
            1           2           3           4           5
    1  -0.0004663   0.0002103   0.0001173   0.0000668   0.0000720
    2   0.0001648   0.0000054   0.0001574   0.0000009  -0.0003285
    3   0.0000207  -0.0000451  -0.0002870   0.0000170   0.0002945
 Max gradient component =       4.663E-04
 RMS gradient           =       2.028E-04
 Gradient time:  CPU 17.64 s  wall 0.96 s
 Geometry Optimization Parameters
   NAtoms,    NIC,     NZ,  NCons,   NDum,   NFix, NCnnct, MaxDiis
        5      19       0       0       0       0       0       0

 Cartesian Hessian Update
 Hessian Updated using BFGS Update


** GEOMETRY OPTIMIZATION IN CARTESIAN COORDINATES **
   Searching for a Minimum

   Optimization Cycle: 199

                       Coordinates (Angstroms)
     ATOM                X               Y               Z
      1  S        11.9275734678    0.3102750960   -1.2100676912
      2  S       -18.0457557242   -0.5152030074    1.3181847784
      3  O        12.6855334386    1.0429820471   -2.2977664569
      4  C       -19.2755894671   -0.9126370814    2.3153864004
      5  N        12.4720509154   -0.8630071657   -0.4898093466
   Point Group: c1    Number of degrees of freedom:     9


   Energy is   -964.318886882


 Translations and Rotations Projected Out of Hessian

  9 Hessian modes will be used to form the next step
  Hessian Eigenvalues:
     0.000019    0.056782    0.081510    0.178490    0.261814    0.754138
     1.212753    1.869082    3.564782
**WARNING** Magnitude of eigenvalue   1 too small.  Replaced by     0.000100

 Minimum Search - Taking Simple RFO Step
 Searching for Lamda that Minimizes Along All modes
 Value Taken    Lamda =  -0.00021083
 Calculated Step too Large.  Step scaled by  0.365501
 Step Taken.  Stepsize is  0.300000

                             Maximum     Tolerance    Cnvgd?
         Gradient           0.000466      0.000300      NO
         Displacement       0.166590      0.001200      NO
         Energy change     -0.000077      0.000001      NO

 ----------------------------------------------------------------
             Standard Nuclear Orientation (Angstroms)
    I     Atom           X                Y                Z
 ----------------------------------------------------------------
    1      S      11.9840533754     0.3074632131    -1.2129852144
    2      S     -18.1339113558    -0.5147508695     1.3243276591
    3      O      12.7286002605     1.0469703784    -2.3052942045
    4      C     -19.3588459912    -0.9168338878     2.3255916640
    5      N      12.5439163415    -0.8604389455    -0.4957122203
 ----------------------------------------------------------------
 Molecular Point Group                 C1    NOp =  1
 Largest Abelian Subgroup              C1    NOp =  1
 Nuclear Repulsion Energy =   138.7849091423 hartrees
 There are       28 alpha and       27 beta electrons
 Applying Cartesian multipole field
    Component          Value
    ---------          -----
     (2,0,0)        1.00000E-11
     (0,2,0)        2.00000E-11
     (0,0,2)       -3.00000E-11
 Nucleus-field energy     =     0.0000004239 hartrees
 Requested basis set is 6-311++G(d)
 There are 44 shells and 126 basis functions
 A cutoff of  1.0D-12 yielded    512 shell pairs
 There are      4308 function pairs (      4668 Cartesian)
 Smallest overlap matrix eigenvalue = 8.48E-04
 Guess MOs from SCF MO coefficient file
 Reading MOs from coefficient file
 Reading MOs from coefficient file

 -----------------------------------------------------------------------
  General SCF calculation program by
  Eric Jon Sundstrom, Paul Horn, Yuezhi Mao, Dmitri Zuev, Alec White,
  David Stuck, Shaama M.S., Shane Yost, Joonho Lee, David Small,
  Daniel Levine, Susi Lehtola, Hugh Burton, Evgeny Epifanovsky
 -----------------------------------------------------------------------
 Exchange:     0.2220 Hartree-Fock + 1.0000 wB97X-D + LR-HF
 Correlation:  1.0000 wB97X-D
 Using SG-2 standard quadrature grid
 Dispersion:   Grimme D
 using 24 threads for integral computing
 -------------------------------------------------------
 OpenMP Integral computing Module                
 Release: version 1.0, May 2013, Q-Chem Inc. Pittsburgh 
 -------------------------------------------------------
 using 24 threads for integral computing
 -------------------------------------------------------
 OpenMP Integral computing Module                
 Release: version 1.0, May 2013, Q-Chem Inc. Pittsburgh 
 -------------------------------------------------------
 -------------------------------------------------------
 OpenMP BLAS3 based DFT computing Module                
 Release: version 1.0, May 2013, Q-Chem Inc. Pittsburgh 
 -------------------------------------------------------
 A unrestricted SCF calculation will be
 performed using Roothaan-Hall, GDM
 SCF converges when RMS gradient is below 1.0e-08
 ---------------------------------------
  Cycle       Energy         DIIS error
 ---------------------------------------
    1    -964.3187746747      1.14e-04  Roothaan Step
 ---------------------------------------
  Cycle       Energy        RMS Gradient
 ---------------------------------------
    1    -964.3189446708      2.27e-03   Normal BFGS step
    2    -964.3189357222      4.61e-03  Line search: overstep
    3    -964.3189559575      7.02e-04   Normal BFGS step
    4    -964.3189624496      1.37e-04   Normal BFGS step
    5    -964.3189626699      5.86e-05   Normal BFGS step
    6    -964.3189627119      2.33e-05   Normal BFGS step
    7    -964.3189627170      2.53e-05   Normal BFGS step
    8    -964.3189627197      1.03e-05   Normal BFGS step
    9    -964.3189627202      6.82e-06   Normal BFGS step
   10    -964.3189627203      3.39e-06   Normal BFGS step
   11    -964.3189627203      5.59e-07   Normal BFGS step
   12    -964.3189627203      2.94e-07   Normal BFGS step
   13    -964.3189627203      3.10e-07   Normal BFGS step
   14    -964.3189627203      1.08e-07   Normal BFGS step
   15    -964.3189627203      6.47e-08   Normal BFGS step
   16    -964.3189627203      3.39e-08   Normal BFGS step
   17    -964.3189627203      2.00e-08   Normal BFGS step
   18    -964.3189627203      2.00e-08   Normal BFGS step
   19    -964.3189627203      2.00e-08   Normal BFGS step
  /global/homes/z/zgan/proj/qc51b/qchem/libgscf/libgscf/opt/gdm.C::WARNING energy changes are now smaller than effective accuracy.
  /global/homes/z/zgan/proj/qc51b/qchem/libgscf/libgscf/opt/gdm.C::        calculation will continue, but THRESH should be increased
  /global/homes/z/zgan/proj/qc51b/qchem/libgscf/libgscf/opt/gdm.C::        or SCF_CONVERGENCE decreased. 
  /global/homes/z/zgan/proj/qc51b/qchem/libgscf/libgscf/opt/gdm.C::        effective_thresh = 9.89e-10
   20    -964.3189627203      1.99e-08   Normal BFGS step
   21    -964.3189627203      1.97e-08   Normal BFGS step
   22    -964.3189627203      2.54e-08   Normal BFGS step
   23    -964.3189627203      5.01e-08   Normal BFGS step
   24    -964.3189627203      6.98e-08   Normal BFGS step
   25    -964.3189627203      1.14e-07   Normal BFGS step
   26    -964.3189627203      1.83e-07   Normal BFGS step
   27    -964.3189627203      2.40e-07   Normal BFGS step
   28    -964.3189627203      2.33e-07   Normal BFGS step
   29    -964.3189627203      1.58e-07   Normal BFGS step
   30    -964.3189627203      8.10e-08   Normal BFGS step
   31    -964.3189627203      5.83e-08   Normal BFGS step
   32    -964.3189627203      1.04e-08   Normal BFGS step
  /global/homes/z/zgan/proj/qc51b/qchem/libgscf/libgscf/opt/gdm.C::WARNING energy changes are now smaller than effective accuracy.
  /global/homes/z/zgan/proj/qc51b/qchem/libgscf/libgscf/opt/gdm.C::        calculation will continue, but THRESH should be increased
  /global/homes/z/zgan/proj/qc51b/qchem/libgscf/libgscf/opt/gdm.C::        or SCF_CONVERGENCE decreased. 
  /global/homes/z/zgan/proj/qc51b/qchem/libgscf/libgscf/opt/gdm.C::        effective_thresh = 1.86e-09
   33    -964.3189627203      9.79e-09  Convergence criterion met
 ---------------------------------------
 SCF time:   CPU 349.41s  wall 17.00s 
 SCF   energy in the final basis set =     -964.3189627203
<S^2> =          0.757755034
 
 --------------------------------------------------------------
 
                    Orbital Energies (a.u.)
 --------------------------------------------------------------
 
 Alpha MOs
 -- Occupied --
-88.886 -88.763 -19.000 -14.187 -10.087  -7.921  -7.810  -5.869
 -5.868  -5.864  -5.757  -5.756  -5.754  -0.901  -0.741  -0.628
 -0.414  -0.346  -0.281  -0.276  -0.238  -0.167  -0.150  -0.132
 -0.130  -0.129  -0.086   0.015
 -- Virtual --
  0.227   0.229   0.230   0.234   0.247   0.248   0.251   0.255
  0.256   0.258   0.308   0.322   0.331   0.360   0.372   0.396
  0.400   0.420   0.433   0.435   0.453   0.466   0.472   0.504
  0.561   0.562   0.589   0.592   0.609   0.651   0.698   0.816
  0.873   0.881   0.921   0.975   1.020   1.036   1.040   1.068
  1.074   1.076   1.094   1.095   1.138   1.160   1.179   1.301
  1.394   1.397   1.399   1.423   1.467   1.508   1.660   1.662
  1.823   1.864   1.865   1.921   1.974   2.032   2.033   2.081
  2.125   2.305   2.315   2.328   2.523   2.545   3.027   3.058
  3.076   3.149   3.150   3.249   3.294   3.382   3.747   4.164
  4.190   4.479   5.315   5.337   5.430   8.127   8.340  17.567
 17.649  17.672  17.675  17.782  17.849  23.742  35.706  50.216
189.385 189.577
 
 Beta MOs
 -- Occupied --
-88.886 -88.763 -19.000 -14.187 -10.077  -7.921  -7.810  -5.869
 -5.868  -5.864  -5.757  -5.756  -5.751  -0.901  -0.741  -0.613
 -0.414  -0.316  -0.281  -0.276  -0.238  -0.145  -0.130  -0.129
 -0.127  -0.111  -0.086
 -- Virtual --
  0.229   0.230   0.236   0.237   0.248   0.248   0.251   0.251
  0.255   0.258   0.258   0.307   0.338   0.351   0.360   0.372
  0.397   0.400   0.428   0.433   0.435   0.453   0.466   0.472
  0.504   0.561   0.562   0.589   0.596   0.609   0.659   0.698
  0.822   0.894   0.914   0.926   0.975   1.020   1.036   1.040
  1.068   1.078   1.094   1.102   1.102   1.155   1.160   1.179
  1.301   1.394   1.399   1.410   1.423   1.467   1.508   1.712
  1.713   1.823   1.874   1.896   1.921   1.974   2.035   2.052
  2.084   2.125   2.315   2.325   2.328   2.523   2.545   3.027
  3.100   3.128   3.149   3.150   3.249   3.294   3.400   3.747
  4.164   4.190   4.479   5.315   5.337   5.430   8.128   8.340
 17.567  17.649  17.672  17.678  17.782  17.849  23.764  35.706
 50.216 189.386 189.577
 --------------------------------------------------------------
 
          Ground-State Mulliken Net Atomic Charges

     Atom                 Charge (a.u.)    Spin (a.u.)
  --------------------------------------------------------
      1 S                     0.122446      -0.000000
      2 S                    -0.346355       0.146664
      3 O                    -0.442401      -0.000000
      4 C                    -0.653645       0.853336
      5 N                    -0.680045       0.000000
  --------------------------------------------------------
  Sum of atomic charges =    -2.000000
  Sum of spin   charges =     1.000000

 -----------------------------------------------------------------
                    Cartesian Multipole Moments
 -----------------------------------------------------------------
    Charge (ESU x 10^10)
                -9.6064
    Dipole Moment (Debye)
         X      29.8026      Y       3.8093      Z      -2.9867
       Tot      30.1932
    Quadrupole Moments (Debye-Ang)
        XX   -2553.9036     XY     -69.9078     YY     -62.8170
        XZ     266.4444     YZ      14.6444     ZZ     -85.9148
    Octopole Moments (Debye-Ang^2)
       XXX   23164.6733    XXY    1393.2096    XYY     132.3456
       YYY      40.4650    XXZ   -2458.3693    XYZ     -72.4111
       YYZ      -7.6182    XZZ     330.6765    YZZ      11.6831
       ZZZ     -30.4288
    Hexadecapole Moments (Debye-Ang^3)
      XXXX -825149.6261   XXXY  -27081.4203   XXYY  -15434.8468
      XYYY   -1212.0215   YYYY    -261.2549   XXXZ   86022.6609
      XXYZ    4165.3768   XYYZ    1527.7764   YYYZ     166.3995
      XXZZ  -22879.6259   XYZZ    -958.9627   YYZZ    -230.7912
      XZZZ    4974.5155   YZZZ     231.4139   ZZZZ   -1065.7717
 -----------------------------------------------------------------
 Calculating analytic gradient of the SCF energy
 Gradient of SCF Energy
            1           2           3           4           5
    1  -0.0004891   0.0001730   0.0001046   0.0001015   0.0001100
    2   0.0001776  -0.0000000   0.0001434   0.0000063  -0.0003274
    3  -0.0000014  -0.0000220  -0.0002687  -0.0000059   0.0002980
 Max gradient component =       4.891E-04
 RMS gradient           =       2.039E-04
 Gradient time:  CPU 17.64 s  wall 0.94 s
 Geometry Optimization Parameters
   NAtoms,    NIC,     NZ,  NCons,   NDum,   NFix, NCnnct, MaxDiis
        5      19       0       0       0       0       0       0

 Cartesian Hessian Update
 Hessian Updated using BFGS Update


** GEOMETRY OPTIMIZATION IN CARTESIAN COORDINATES **
   Searching for a Minimum

   Optimization Cycle: 200

                       Coordinates (Angstroms)
     ATOM                X               Y               Z
      1  S        11.9840533754    0.3074632131   -1.2129852144
      2  S       -18.1339113558   -0.5147508695    1.3243276591
      3  O        12.7286002605    1.0469703784   -2.3052942045
      4  C       -19.3588459912   -0.9168338878    2.3255916640
      5  N        12.5439163415   -0.8604389455   -0.4957122203
   Point Group: c1    Number of degrees of freedom:     9


   Energy is   -964.318962720


 Translations and Rotations Projected Out of Hessian

  9 Hessian modes will be used to form the next step
  Hessian Eigenvalues:
     0.000021    0.056473    0.081077    0.178076    0.258785    0.751928
     1.197846    1.866701    3.551723
**WARNING** Magnitude of eigenvalue   1 too small.  Replaced by     0.000100

 Minimum Search - Taking Simple RFO Step
 Searching for Lamda that Minimizes Along All modes
 Value Taken    Lamda =  -0.00020440
 Calculated Step too Large.  Step scaled by  0.365840
 Step Taken.  Stepsize is  0.300000

                             Maximum     Tolerance    Cnvgd?
         Gradient           0.000489      0.000300      NO
         Displacement       0.166656      0.001200      NO
         Energy change     -0.000076      0.000001      NO

 ----------------------------------------------------------------
             Standard Nuclear Orientation (Angstroms)
    I     Atom           X                Y                Z
 ----------------------------------------------------------------
    1      S      12.0405330397     0.3045646129    -1.2160407372
    2      S     -18.2221016813    -0.5142448087     1.3304500543
    3      O      12.7717930870     1.0509033837    -2.3126817370
    4      C     -19.4420879853    -0.9210884683     2.3358276961
    5      N      12.6156761704    -0.8577248309    -0.5016275922
 ----------------------------------------------------------------
 Molecular Point Group                 C1    NOp =  1
 Largest Abelian Subgroup              C1    NOp =  1
 Nuclear Repulsion Energy =   138.7287659252 hartrees
 There are       28 alpha and       27 beta electrons

                       Distance Matrix (Angstroms)
             S (  1)   S (  2)   O (  3)   C (  4)
   S (  2) 30.380621
   O (  3)  1.514723 31.246498
   C (  4) 31.706047  1.632382 32.607231
   N (  5)  1.480572 30.894061  2.635745 32.183154
 


 *******************************************
 **  MAXIMUM OPTIMIZATION CYCLES REACHED  **
 *******************************************

 Q-Chem fatal error occurred in module 0, line  456, PE  0:

 Maximum optimization cycles reached

