
Running Job 1 of 1 mol.qin
qchem mol.qin_15134.0 /tmp/scratch/ 0
/clusterfs/mp/software/qchem5.4/exe/qcprog.exe_s mol.qin_15134.0 /tmp/scratch/
                  Welcome to Q-Chem
     A Quantum Leap Into The Future Of Chemistry


 Q-Chem 5.4, Q-Chem, Inc., Pleasanton, CA (2021)

 E. Epifanovsky,  A. T. B. Gilbert,  Xintian Feng,  Joonho Lee,  Yuezhi Mao,  
 N. Mardirossian,  P. Pokhilko,  A. White,  M. Wormit,  M. P. Coons,  
 A. L. Dempwolff,  Zhengting Gan,  D. Hait,  P. R. Horn,  L. D. Jacobson,  
 I. Kaliman,  J. Kussmann,  A. W. Lange,  Ka Un Lao,  D. S. Levine,  Jie Liu,  
 S. C. McKenzie,  A. F. Morrison,  K. Nanda,  F. Plasser,  D. R. Rehn,  
 M. L. Vidal,  Zhi-Qiang You,  Ying Zhu,  B. Alam,  B. Albrecht,  
 A. Aldossary,  E. Alguire,  J. H. Andersen,  D. Barton,  K. Begam,  A. Behn,  
 Y. A. Bernard,  E. J. Berquist,  H. Burton,  A. Carreras,  K. Carter-Fenk,  
 Romit Chakraborty,  A. D. Chien,  K. D. Closser,  V. Cofer-Shabica,  
 S. Dasgupta,  Jia Deng,  M. de Wergifosse,  M. Diedenhofen,  Hainam Do,  
 S. Ehlert,  Po-Tung Fang,  S. Fatehi,  Qingguo Feng,  T. Friedhoff,  
 J. Gayvert,  Qinghui Ge,  G. Gidofalvi,  M. Goldey,  J. Gomes,  
 C. Gonzalez-Espinoza,  S. Gulania,  A. Gunina,  M. W. D. Hanson-Heine,  
 P. H. P. Harbach,  A. W. Hauser,  M. F. Herbst,  M. Hernandez Vera,  
 M. Hodecker,  Z. C. Holden,  S. Houck,  Xunkun Huang,  Kerwin Hui,  
 B. C. Huynh,  M. Ivanov,  Hyunjun Ji,  Hanjie Jiang,  B. Kaduk,  S. Kaehler,  
 K. Khistyaev,  Jaehoon Kim,  P. Klunzinger,  Z. Koczor-Benda,  
 Joong Hoon Koh,  D. Kosenkov,  L. Koulias,  T. Kowalczyk,  C. M. Krauter,  
 K. Kue,  A. Kunitsa,  T. Kus,  A. Landau,  K. V. Lawler,  D. Lefrancois,  
 S. Lehtola,  Rain Li,  Yi-Pei Li,  Jiashu Liang,  M. Liebenthal,  
 Hung-Hsuan Lin,  You-Sheng Lin,  Fenglai Liu,  Kuan-Yu Liu,  
 M. Loipersberger,  A. Luenser,  A. Manjanath,  P. Manohar,  E. Mansoor,  
 S. F. Manzer,  Shan-Ping Mao,  A. V. Marenich,  T. Markovich,  S. Mason,  
 S. A. Maurer,  P. F. McLaughlin,  M. F. S. J. Menger,  J.-M. Mewes,  
 S. A. Mewes,  P. Morgante,  J. W. Mullinax,  K. J. Oosterbaan,  G. Paran,  
 Alexander C. Paul,  Suranjan K. Paul,  F. Pavosevic,  Zheng Pei,  S. Prager,  
 E. I. Proynov,  E. Ramos,  B. Rana,  A. E. Rask,  A. Rettig,  R. M. Richard,  
 F. Rob,  E. Rossomme,  T. Scheele,  M. Scheurer,  M. Schneider,  
 N. Sergueev,  S. M. Sharada,  W. Skomorowski,  D. W. Small,  C. J. Stein,  
 Yu-Chuan Su,  E. J. Sundstrom,  Zhen Tao,  J. Thirman,  T. Tsuchimochi,  
 N. M. Tubman,  S. P. Veccham,  O. Vydrov,  J. Wenzel,  J. Witte,  A. Yamada,  
 Kun Yao,  S. Yeganeh,  S. R. Yost,  A. Zech,  Igor Ying Zhang,  Xing Zhang,  
 Yu Zhang,  D. Zuev,  A. Aspuru-Guzik,  A. T. Bell,  N. A. Besley,  
 K. B. Bravaya,  B. R. Brooks,  D. Casanova,  Jeng-Da Chai,  S. Coriani,  
 C. J. Cramer,  A. E. DePrince, III,  R. A. DiStasio Jr.,  A. Dreuw,  
 B. D. Dunietz,  T. R. Furlani,  W. A. Goddard III,  S. Grimme,  
 S. Hammes-Schiffer,  T. Head-Gordon,  W. J. Hehre,  Chao-Ping Hsu,  
 T.-C. Jagau,  Yousung Jung,  A. Klamt,  Jing Kong,  D. S. Lambrecht,  
 WanZhen Liang,  N. J. Mayhall,  C. W. McCurdy,  J. B. Neaton,  T. Neudecker,  
 C. Ochsenfeld,  J. A. Parkhill,  R. Peverati,  V. A. Rassolov,  Yihan Shao,  
 L. V. Slipchenko,  R. P. Steele,  J. E. Subotnik,  A. J. W. Thom,  
 A. Tkatchenko,  D. G. Truhlar,  T. Van Voorhis,  T. A. Wesolowski,  
 K. B. Whaley,  H. L. Woodcock III,  P. M. Zimmerman,  S. Faraji,  
 P. M. W. Gill,  M. Head-Gordon,  J. M. Herbert,  A. I. Krylov

 Additional authors since Version 5.4.0: 
 Chandrima Chakravarty,  L. Cunha,  R. Kang,  Yongbin Kim,  S. Kotaru,  
 Shaozhi Li,  Xiangyuan Li,  F. Matz,  A. Molle,  V. Parravicini,  
 Haisheng Ren,  Hengyuan Shen,  Yingli Su,  Hung-Yi Tsai,  C. Utku,  
 Fang Wang,  Jeff Yang,  F. Zeller

 Contributors to earlier versions of Q-Chem not listed above: 
 R. D. Adamson,  B. Austin,  R. Baer,  J. Baker,  G. J. O. Beran,  
 K. Brandhorst,  S. T. Brown,  E. F. C. Byrd,  Arup K. Chakraborty,  
 G. K. L. Chan,  Chun-Min Chang,  Yunqing Chen,  C.-L. Cheng,  
 Siu Hung Chien,  D. M. Chipman,  D. L. Crittenden,  H. Dachsel,  
 R. J. Doerksen,  A. D. Dutoi,  R. G. Edgar,  J. Fosso-Tande,  
 L. Fusti-Molnar,  D. Ghosh,  A. Ghysels,  A. Golubeva-Zadorozhnaya,  
 J. Gonthier,  M. S. Gordon,  S. R. Gwaltney,  G. Hawkins,  J. E. Herr,  
 A. Heyden,  S. Hirata,  E. G. Hohenstein,  G. Kedziora,  F. J. Keil,  
 C. Kelley,  Jihan Kim,  R. A. King,  R. Z. Khaliullin,  P. P. Korambath,  
 W. Kurlancheek,  A. Laurent,  A. M. Lee,  M. S. Lee,  S. V. Levchenko,  
 Ching Yeh Lin,  D. Liotard,  E. Livshits,  R. C. Lochan,  I. Lotan,  
 L. A. Martinez-Martinez,  P. E. Maslen,  N. Nair,  D. P. O'Neill,  
 D. Neuhauser,  E. Neuscamman,  C. M. Oana,  R. Olivares-Amaya,  R. Olson,  
 T. M. Perrine,  B. Peters,  P. A. Pieniazek,  A. Prociuk,  Y. M. Rhee,  
 J. Ritchie,  M. A. Rohrdanz,  E. Rosta,  N. J. Russ,  H. F. Schaefer III,  
 M. W. Schmidt,  N. E. Schultz,  S. Sharma,  N. Shenvi,  C. D. Sherrill,  
 A. C. Simmonett,  A. Sodt,  T. Stein,  D. Stuck,  K. S. Thanthiriwatte,  
 V. Vanovschi,  L. Vogt,  Tao Wang,  A. Warshel,  M. A. Watson,  
 C. F. Williams,  Q. Wu,  X. Xu,  Jun Yang,  W. Zhang,  Yan Zhao

   Please cite Q-Chem as follows:
  "Software for the frontiers of quantum chemistry:
   An overview of developments in the Q-Chem 5 package"
   J. Chem. Phys. 155, 084801 (2021)
   https://doi.org/10.1063/5.0055522 (open access)

 Q-Chem 5.4.2 for Intel X86 EM64T Linux

 Parts of Q-Chem use Armadillo 9.900.5 (Nocturnal Misbehaviour).
 http://arma.sourceforge.net/

 Q-Chem begins on Sun Jul 17 12:37:32 2022  

 Host: 
0

     Scratch files written to /tmp/scratch//
 Dec1321 |scratch|qcdevops|jenkins|workspace|build_RNUM 7600   
 Processing $rem in /clusterfs/mp/software/qchem5.4/config/preferences:
 Processing $rem in /global/home/users/smblau/.qchemrc:
 Symmetry turned off for PCM/SM12/SMD calculation

 Checking the input file for inconsistencies... 	...done.

--------------------------------------------------------------
User input:
--------------------------------------------------------------
$molecule
1 2
S      0.4904054995      1.8685991155      2.1390190751
C     -1.0546266529      2.1819224219      2.9681318490
C     -1.2850455583      1.4397160713      4.1262320859
H     -0.5603074689      0.7034380408      4.4628910941
C     -2.4592421830      1.6656001586      4.8366264493
H     -2.6567827117      1.1007764461      5.7423770353
C     -3.3799370801      2.6067089853      4.3801479000
H     -4.3003338685      2.7723883684      4.9320897425
C     -3.1355923320      3.3313531747      3.2142541953
H     -3.8588183885      4.0605324808      2.8613693713
C     -1.9640222188      3.1261991162      2.4940442279
H     -1.7680322454      3.6795841632      1.5809718203
C      1.6062991897      3.1340939722      2.7493340472
C      2.9704490086      2.9566403966      2.4651970510
H      3.3276055992      2.1494266250      1.8291548313
C      3.7987062372      3.9230962226      2.9712395141
C      3.4204125543      5.0109433864      3.7202389660
H      4.1354674818      5.7341726310      4.1041647492
C      2.0520795517      5.1535563156      3.9764995736
H      1.6948384416      6.0003798565      4.5564584813
C      1.1416254651      4.2161204857      3.4933905960
H      0.0854294040      4.3248950168      3.7097013850
C      0.1706233624      2.3257515083      0.4359462842
C      0.8923683864      3.3339407270     -0.1922158619
H      1.6305942796      3.9184556338      0.3454560193
C      0.6521221840      3.5809354351     -1.5424803231
H      1.2124050945      4.3634958726     -2.0455193232
C     -0.3051426335      2.8434642637     -2.2310705206
H     -0.4917055147      3.0410429111     -3.2817803519
C     -1.0282906052      1.8467856751     -1.5762259759
H     -1.7920870217      1.2926140379     -2.1101957473
C     -0.7856113212      1.5647837342     -0.2375117366
H     -1.3489084050      0.7861233292      0.2752794597
S     -0.6425604556     -3.3883979587     -0.9638953466
C      0.5644060738     -2.1181100309     -0.6526066390
C      0.9912956990     -1.9642936233      0.6661018134
H      0.5622183604     -2.5786853040      1.4526328061
C      1.9865151466     -1.0337100344      0.9490765679
H      2.3440664873     -0.9222470826      1.9684180070
C      2.5260283218     -0.2584268802     -0.0751757938
H      3.3285204546      0.4368294653      0.1557837977
C      2.0800779028     -0.4088781100     -1.3877839835
H      2.5126884091      0.1883782496     -2.1855065475
C      1.1008184566     -1.3509284011     -1.6878287911
H      0.7567892294     -1.4938525928     -2.7078039024
C     -1.6661889532     -2.7592582226     -2.4562983193
C     -1.9085190261     -3.6111347995     -3.4849033078
C     -2.7568637997     -3.0435275428     -4.4632628484
H     -3.0255957081     -3.6183585079     -5.3535613251
C     -3.2865586548     -1.7572862742     -4.3499347626
H     -3.9411386717     -1.3640377513     -5.1274891211
C     -2.9835350846     -0.9600496627     -3.2406468161
H     -3.3907321003      0.0450637069     -3.1569523040
C     -2.1519385110     -1.4685720449     -2.2475326231
H     -1.8524884465     -0.8638053021     -1.3909957784
C      0.2973929738     -4.7315181456     -1.6389302678
C     -0.4355119857     -5.8871694424     -1.9142752770
H     -1.4969775969     -5.9294473990     -1.6981097398
C      0.2243828594     -6.9836113066     -2.4620233275
H     -0.3315523604     -7.8920650376     -2.6749575671
C      1.5901585869     -6.9206350803     -2.7247501310
H      2.0993030619     -7.7839066395     -3.1444758816
C      2.3060982617     -5.7577674640     -2.4469298734
H      3.3726213902     -5.7098072388     -2.6449841525
C      1.6619654778     -4.6498031462     -1.9034290625
H      2.2193606719     -3.7444859752     -1.6881844651
$end

$rem
job_type = opt
basis = def2-svpd
max_scf_cycles = 100
gen_scfman = true
xc_grid = 3
thresh = 14
s2thresh = 16
gen_scfman_hybrid_algo = true
gen_scfman_algo_1 = gdm
gen_scfman_conv_1 = 4
gen_scfman_iter_1 = 50
gen_scfman_algo_2 = gdm_qls
gen_scfman_conv_2 = 8
gen_scfman_iter_2 = 50
resp_charges = true
symmetry = false
sym_ignore = true
method = b97m-v
geom_opt_max_cycles = 200
solvent_method = pcm
geom_opt2 = 3
scf_algorithm = diis_gdm
$end

$pcm
heavypoints 194
hpoints 194
radii uff
theory cpcm
vdwscale 1.1
$end

$solvent
dielectric 3.0
$end

$geom_opt
maxiter = 200
$end
--------------------------------------------------------------
 ----------------------------------------------------------------
             Standard Nuclear Orientation (Angstroms)
    I     Atom           X                Y                Z
 ----------------------------------------------------------------
    1      S       0.4904054995     1.8685991155     2.1390190751
    2      C      -1.0546266529     2.1819224219     2.9681318490
    3      C      -1.2850455583     1.4397160713     4.1262320859
    4      H      -0.5603074689     0.7034380408     4.4628910941
    5      C      -2.4592421830     1.6656001586     4.8366264493
    6      H      -2.6567827117     1.1007764461     5.7423770353
    7      C      -3.3799370801     2.6067089853     4.3801479000
    8      H      -4.3003338685     2.7723883684     4.9320897425
    9      C      -3.1355923320     3.3313531747     3.2142541953
   10      H      -3.8588183885     4.0605324808     2.8613693713
   11      C      -1.9640222188     3.1261991162     2.4940442279
   12      H      -1.7680322454     3.6795841632     1.5809718203
   13      C       1.6062991897     3.1340939722     2.7493340472
   14      C       2.9704490086     2.9566403966     2.4651970510
   15      H       3.3276055992     2.1494266250     1.8291548313
   16      C       3.7987062372     3.9230962226     2.9712395141
   17      C       3.4204125543     5.0109433864     3.7202389660
   18      H       4.1354674818     5.7341726310     4.1041647492
   19      C       2.0520795517     5.1535563156     3.9764995736
   20      H       1.6948384416     6.0003798565     4.5564584813
   21      C       1.1416254651     4.2161204857     3.4933905960
   22      H       0.0854294040     4.3248950168     3.7097013850
   23      C       0.1706233624     2.3257515083     0.4359462842
   24      C       0.8923683864     3.3339407270    -0.1922158619
   25      H       1.6305942796     3.9184556338     0.3454560193
   26      C       0.6521221840     3.5809354351    -1.5424803231
   27      H       1.2124050945     4.3634958726    -2.0455193232
   28      C      -0.3051426335     2.8434642637    -2.2310705206
   29      H      -0.4917055147     3.0410429111    -3.2817803519
   30      C      -1.0282906052     1.8467856751    -1.5762259759
   31      H      -1.7920870217     1.2926140379    -2.1101957473
   32      C      -0.7856113212     1.5647837342    -0.2375117366
   33      H      -1.3489084050     0.7861233292     0.2752794597
   34      S      -0.6425604556    -3.3883979587    -0.9638953466
   35      C       0.5644060738    -2.1181100309    -0.6526066390
   36      C       0.9912956990    -1.9642936233     0.6661018134
   37      H       0.5622183604    -2.5786853040     1.4526328061
   38      C       1.9865151466    -1.0337100344     0.9490765679
   39      H       2.3440664873    -0.9222470826     1.9684180070
   40      C       2.5260283218    -0.2584268802    -0.0751757938
   41      H       3.3285204546     0.4368294653     0.1557837977
   42      C       2.0800779028    -0.4088781100    -1.3877839835
   43      H       2.5126884091     0.1883782496    -2.1855065475
   44      C       1.1008184566    -1.3509284011    -1.6878287911
   45      H       0.7567892294    -1.4938525928    -2.7078039024
   46      C      -1.6661889532    -2.7592582226    -2.4562983193
   47      C      -1.9085190261    -3.6111347995    -3.4849033078
   48      C      -2.7568637997    -3.0435275428    -4.4632628484
   49      H      -3.0255957081    -3.6183585079    -5.3535613251
   50      C      -3.2865586548    -1.7572862742    -4.3499347626
   51      H      -3.9411386717    -1.3640377513    -5.1274891211
   52      C      -2.9835350846    -0.9600496627    -3.2406468161
   53      H      -3.3907321003     0.0450637069    -3.1569523040
   54      C      -2.1519385110    -1.4685720449    -2.2475326231
   55      H      -1.8524884465    -0.8638053021    -1.3909957784
   56      C       0.2973929738    -4.7315181456    -1.6389302678
   57      C      -0.4355119857    -5.8871694424    -1.9142752770
   58      H      -1.4969775969    -5.9294473990    -1.6981097398
   59      C       0.2243828594    -6.9836113066    -2.4620233275
   60      H      -0.3315523604    -7.8920650376    -2.6749575671
   61      C       1.5901585869    -6.9206350803    -2.7247501310
   62      H       2.0993030619    -7.7839066395    -3.1444758816
   63      C       2.3060982617    -5.7577674640    -2.4469298734
   64      H       3.3726213902    -5.7098072388    -2.6449841525
   65      C       1.6619654778    -4.6498031462    -1.9034290625
   66      H       2.2193606719    -3.7444859752    -1.6881844651
 ----------------------------------------------------------------
 Nuclear Repulsion Energy =        4242.42695226 hartrees
 There are      138 alpha and      137 beta electrons
 Requested basis set is def2-SVPD
 There are 422 shells and 998 basis functions

 Total QAlloc Memory Limit  96000 MB
 Mega-Array Size       188 MB
 MEM_STATIC part       192 MB
 -----------------------------------------------------------------------
                STARTING GEOMETRY OPTIMIZER USING LIBOPT3
                by Peter F. McLaughlin, Yu Zhang, Evgeny Epifanovsky
 -----------------------------------------------------------------------
  Checking Topology for Ill-Behaving Coordinates
  Done Checking Topology
              Initial Energy and Gradient Calculation

	Performing Iterative Coordinate Back-Transformation

	  Starting from Previous Position
	  iter:	0	rms: 0.000000	maxdev: 0.000000	 Success!

	Finished Iterative Coordinate Back-Transformation
 ----------------------------------------------------------------
             Standard Nuclear Orientation (Angstroms)
    I     Atom           X                Y                Z
 ----------------------------------------------------------------
    1      S       0.4904054995     1.8685991155     2.1390190751
    2      C      -1.0546266529     2.1819224219     2.9681318490
    3      C      -1.2850455583     1.4397160713     4.1262320859
    4      H      -0.5603074689     0.7034380408     4.4628910941
    5      C      -2.4592421830     1.6656001586     4.8366264493
    6      H      -2.6567827117     1.1007764461     5.7423770353
    7      C      -3.3799370801     2.6067089853     4.3801479000
    8      H      -4.3003338685     2.7723883684     4.9320897425
    9      C      -3.1355923320     3.3313531747     3.2142541953
   10      H      -3.8588183885     4.0605324808     2.8613693713
   11      C      -1.9640222188     3.1261991162     2.4940442279
   12      H      -1.7680322454     3.6795841632     1.5809718203
   13      C       1.6062991897     3.1340939722     2.7493340472
   14      C       2.9704490086     2.9566403966     2.4651970510
   15      H       3.3276055992     2.1494266250     1.8291548313
   16      C       3.7987062372     3.9230962226     2.9712395141
   17      C       3.4204125543     5.0109433864     3.7202389660
   18      H       4.1354674818     5.7341726310     4.1041647492
   19      C       2.0520795517     5.1535563156     3.9764995736
   20      H       1.6948384416     6.0003798565     4.5564584813
   21      C       1.1416254651     4.2161204857     3.4933905960
   22      H       0.0854294040     4.3248950168     3.7097013850
   23      C       0.1706233624     2.3257515083     0.4359462842
   24      C       0.8923683864     3.3339407270    -0.1922158619
   25      H       1.6305942796     3.9184556338     0.3454560193
   26      C       0.6521221840     3.5809354351    -1.5424803231
   27      H       1.2124050945     4.3634958726    -2.0455193232
   28      C      -0.3051426335     2.8434642637    -2.2310705206
   29      H      -0.4917055147     3.0410429111    -3.2817803519
   30      C      -1.0282906052     1.8467856751    -1.5762259759
   31      H      -1.7920870217     1.2926140379    -2.1101957473
   32      C      -0.7856113212     1.5647837342    -0.2375117366
   33      H      -1.3489084050     0.7861233292     0.2752794597
   34      S      -0.6425604556    -3.3883979587    -0.9638953466
   35      C       0.5644060738    -2.1181100309    -0.6526066390
   36      C       0.9912956990    -1.9642936233     0.6661018134
   37      H       0.5622183604    -2.5786853040     1.4526328061
   38      C       1.9865151466    -1.0337100344     0.9490765679
   39      H       2.3440664873    -0.9222470826     1.9684180070
   40      C       2.5260283218    -0.2584268802    -0.0751757938
   41      H       3.3285204546     0.4368294653     0.1557837977
   42      C       2.0800779028    -0.4088781100    -1.3877839835
   43      H       2.5126884091     0.1883782496    -2.1855065475
   44      C       1.1008184566    -1.3509284011    -1.6878287911
   45      H       0.7567892294    -1.4938525928    -2.7078039024
   46      C      -1.6661889532    -2.7592582226    -2.4562983193
   47      C      -1.9085190261    -3.6111347995    -3.4849033078
   48      C      -2.7568637997    -3.0435275428    -4.4632628484
   49      H      -3.0255957081    -3.6183585079    -5.3535613251
   50      C      -3.2865586548    -1.7572862742    -4.3499347626
   51      H      -3.9411386717    -1.3640377513    -5.1274891211
   52      C      -2.9835350846    -0.9600496627    -3.2406468161
   53      H      -3.3907321003     0.0450637069    -3.1569523040
   54      C      -2.1519385110    -1.4685720449    -2.2475326231
   55      H      -1.8524884465    -0.8638053021    -1.3909957784
   56      C       0.2973929738    -4.7315181456    -1.6389302678
   57      C      -0.4355119857    -5.8871694424    -1.9142752770
   58      H      -1.4969775969    -5.9294473990    -1.6981097398
   59      C       0.2243828594    -6.9836113066    -2.4620233275
   60      H      -0.3315523604    -7.8920650376    -2.6749575671
   61      C       1.5901585869    -6.9206350803    -2.7247501310
   62      H       2.0993030619    -7.7839066395    -3.1444758816
   63      C       2.3060982617    -5.7577674640    -2.4469298734
   64      H       3.3726213902    -5.7098072388    -2.6449841525
   65      C       1.6619654778    -4.6498031462    -1.9034290625
   66      H       2.2193606719    -3.7444859752    -1.6881844651
 ----------------------------------------------------------------
 Nuclear Repulsion Energy =        4242.42695226 hartrees
 There are      138 alpha and      137 beta electrons
 Discretize the solute cavity surface with Lebedev spheres
	Using 194 Lebedev grid points for each H atom
	Using 194 Lebedev grid points for other atoms
	Atomic van der Waals radii will be scaled by 1.10
 Remove points where switching function is < 1.0e-08
 Keep 4906 surface tesserae and discard 7898 interior tesserae
 Molecular Surface Area = 606.725 Angst**2
 Requested basis set is def2-SVPD
 There are 422 shells and 998 basis functions
 A cutoff of  1.0D-16 yielded  68831 shell pairs
 There are    382075 function pairs (    442858 Cartesian)
 Smallest overlap matrix eigenvalue = 3.83E-06

 Scale SEOQF with 1.000000e-01/1.000000e-02/1.000000e-02

 Standard Electronic Orientation quadrupole field applied
 Nucleus-field energy     =     0.0000000402 hartrees
 Guess from superposition of atomic densities
 Warning:  Energy on first SCF cycle will be non-variational
 SAD guess density has 276.000000 electrons

 -----------------------------------------------------------------------
  General SCF calculation program by
  Eric Jon Sundstrom, Paul Horn, Yuezhi Mao, Dmitri Zuev, Alec White,
  David Stuck, Shaama M.S., Shane Yost, Joonho Lee, David Small,
  Daniel Levine, Susi Lehtola, Hugh Burton, Evgeny Epifanovsky,
  Bang C. Huynh
 -----------------------------------------------------------------------
 Exchange:  B97M-V      Correlation:  B97M-V
 Using SG-3 standard quadrature grid
 Nonlocal Correlation:  VV10 with C = 0.0100 and b = 6.00 and scale = 1.00000
 Grid used for NLC:  SG-1 standard quadrature
 using 40 threads for integral computing
 -------------------------------------------------------
 OpenMP Integral computing Module                
 Release: version 1.0, May 2013, Q-Chem Inc. Pittsburgh 
 -------------------------------------------------------
 -------------------------------------------------------
 OpenMP BLAS3 based DFT computing Module                
 Release: version 1.0, May 2013, Q-Chem Inc. Pittsburgh 
 -------------------------------------------------------
 A unrestricted SCF calculation will be
 performed using Roothaan-Hall, GDM, GDM with quadratic line-search
 ---------------------------------------
  Cycle       Energy         DIIS error
 ---------------------------------------
    1   -2191.4916579862      1.04e-02  Roothaan Step
 ---------------------------------------
  Cycle       Energy        RMS Gradient
 ---------------------------------------
    1   -2182.4806816278      1.21e-01   Descent step
    2   -2182.9999625866      5.44e-02   Descent step
    3   -2183.2264724119      1.44e-02   Normal BFGS step
    4   -2183.2547703429      4.02e-02   Normal BFGS step
    5   -2183.2618985971      2.61e-02   Normal BFGS step
    6   -2183.2666330726      6.81e-03   Normal BFGS step
    7   -2183.2673632505      8.93e-03   Normal BFGS step
    8   -2183.2677898709      5.00e-03   Normal BFGS step
    9   -2183.2679415318      3.19e-03   Normal BFGS step
   10   -2183.2680735140      1.52e-03   Normal BFGS step
   11   -2183.2680909606      1.23e-03   Normal BFGS step
   12   -2183.2681129816      9.19e-04   Normal BFGS step
   13   -2183.2681142132      8.77e-04   Normal BFGS step
   14   -2183.2681182824      8.91e-04   Normal BFGS step
   15   -2183.2681194564      8.73e-04   Normal BFGS step
   16   -2183.2681210580      8.56e-04   Normal BFGS step
   17   -2183.2681267977      5.23e-04   Normal BFGS step
   18   -2183.2681289805      5.66e-04   Normal BFGS step
   19   -2183.2681323103      4.05e-04   Normal BFGS step
   20   -2183.2681334029      2.11e-04   Normal BFGS step
   21   -2183.2681339610      1.51e-04   Normal BFGS step
   22   -2183.2681341217      1.48e-04   Normal BFGS step
   23   -2183.2681341947      4.94e-05  Done GDM. Switching to GDM with quadratic line-search
GDM subspace size: 20
 ---------------------------------------
  Cycle       Energy          Error
 ---------------------------------------
Line search, dEdstep = -1.873734e-07
	0.000000e+00	-6425.6950864943
	1.859726e+03	-6424.7493457777	 9.457407e-01
	3.424868e-01	-6425.6950866960	-2.017232e-07
Optimal value differs by -1.696367e-07 from prediction
    1   -2183.2681341947      9.52e-07  Preconditoned Steepest Descent
Line search, dEdstep = -1.057377e-08
	0.000000e+00	-6425.6950866960
	4.713771e+02	-6425.6890804380	 6.006258e-03
	1.954216e-01	-6425.6950865560	 1.399776e-07
Optimal value differs by 1.410108e-07 from prediction
	2.356886e+02	-6425.6940940435	 9.926525e-04
	2.951146e-01	-6425.6950865625	 1.334611e-07
Optimal value differs by 1.350213e-07 from prediction
	1.178443e+02	-6425.6948922442	 1.944518e-04
	3.751723e-01	-6425.6950865192	 1.767739e-07
Optimal value differs by 1.787574e-07 from prediction
	5.892214e+01	-6425.6950439636	 4.273242e-05
	4.233632e-01	-6425.6950865860	 1.099788e-07
Optimal value differs by 1.122171e-07 from prediction
	2.946107e+01	-6425.6950767413	 9.954706e-06
	4.469782e-01	-6425.6950865438	 1.521485e-07
Optimal value differs by 1.545116e-07 from prediction
Resetting GDM.
	1.473054e+01	-6425.6950836177	 3.078319e-06
	3.547207e-01	-6425.6950865573	 1.386870e-07
Optimal value differs by 1.405624e-07 from prediction
gdm_qls: Orbitals will not converge further.
    2   -2183.2681342109      2.04e-07  Convergence criterion met
 ---------------------------------------
 SCF time:   CPU 72259.96s  wall 3430.00s 
<S^2> =          0.761423015

************** Final PCM Free Energy Summary **************
 G_electrostatic  =      -0.05298134 hartree =     -33.24628996 kcal/mol
 G_cavitation     =       0.00000000 hartree =       0.00000000 kcal/mol
 G_dispersion     =       0.00000000 hartree =       0.00000000 kcal/mol
 G_repulsion      =       0.00000000 hartree =       0.00000000 kcal/mol
 --------------------------------------------------
 Non-electrostatic Free Energy =       0.00000000 hartree =       0.00000000 kcal/mol
 Total                         =      -0.05298134 hartree =     -33.24628996 kcal/mol
 --------------------------------------------------
 SCF Energy (H0 + V/2)                       =   -2183.26813421 
 Solute Internal Energy (H0)                 =   -2183.21515288 
 Total Free Energy (H0 + V/2 + non-elec)     =   -2183.26813421 hartree
                                             = -1370021.43194987 kcal/mol
***********************************************************

 SCF   energy in the final basis set =    -2183.2681342109
 Total energy in the final basis set =    -2183.2681342109
 
 --------------------------------------------------------------
 
                    Orbital Energies (a.u.)
 --------------------------------------------------------------
 
 Alpha MOs
 -- Occupied --
-89.1218 -89.0614 -10.3144 -10.3066 -10.3060 -10.2861 -10.2843 -10.2813
-10.2729 -10.2725 -10.2720 -10.2702 -10.2691 -10.2690 -10.2683 -10.2668
-10.2606 -10.2602 -10.2597 -10.2578 -10.2576 -10.2572 -10.2558 -10.2540
-10.2521 -10.2506 -10.2498 -10.2365 -10.2361 -10.2341 -10.2263 -10.2253
-10.2246 -10.2213 -10.2102 -10.2024 -10.1974 -10.1566  -8.1483  -8.0901
 -6.0232  -6.0230  -6.0168  -5.9657  -5.9637  -5.9586  -0.9545  -0.9134
 -0.9104  -0.9057  -0.8801  -0.8737  -0.8513  -0.8284  -0.8066  -0.7995
 -0.7961  -0.7932  -0.7909  -0.7809  -0.7750  -0.7586  -0.7517  -0.7430
 -0.7236  -0.7067  -0.6642  -0.6600  -0.6554  -0.6458  -0.6436  -0.6395
 -0.6340  -0.6158  -0.6144  -0.6016  -0.5856  -0.5719  -0.5678  -0.5669
 -0.5478  -0.5465  -0.5233  -0.5200  -0.5139  -0.5123  -0.5029  -0.4980
 -0.4945  -0.4908  -0.4832  -0.4811  -0.4749  -0.4711  -0.4696  -0.4691
 -0.4655  -0.4615  -0.4528  -0.4464  -0.4440  -0.4430  -0.4409  -0.4343
 -0.4279  -0.4238  -0.4200  -0.4185  -0.4142  -0.4013  -0.4004  -0.3991
 -0.3942  -0.3904  -0.3885  -0.3838  -0.3814  -0.3780  -0.3739  -0.3649
 -0.3615  -0.3561  -0.3443  -0.3259  -0.3234  -0.3192  -0.3161  -0.3092
 -0.3055  -0.3015  -0.2996  -0.2944  -0.2796  -0.2739  -0.2698  -0.2496
 -0.2413  -0.1774
 -- Virtual --
 -0.1362  -0.1294  -0.1185  -0.1122  -0.1069  -0.1020  -0.0990  -0.0950
 -0.0824  -0.0681  -0.0663  -0.0642  -0.0550  -0.0455  -0.0407  -0.0329
 -0.0270  -0.0229  -0.0198  -0.0179  -0.0090  -0.0077  -0.0041  -0.0030
  0.0026   0.0068   0.0085   0.0117   0.0142   0.0174   0.0201   0.0229
  0.0264   0.0300   0.0334   0.0342   0.0356   0.0383   0.0396   0.0428
  0.0455   0.0498   0.0510   0.0535   0.0547   0.0576   0.0596   0.0627
  0.0647   0.0673   0.0690   0.0741   0.0773   0.0819   0.0840   0.0853
  0.0877   0.0892   0.0897   0.0968   0.0981   0.1014   0.1024   0.1041
  0.1052   0.1101   0.1126   0.1135   0.1169   0.1173   0.1204   0.1220
  0.1250   0.1284   0.1301   0.1328   0.1343   0.1353   0.1370   0.1405
  0.1415   0.1439   0.1458   0.1491   0.1497   0.1518   0.1542   0.1577
  0.1606   0.1633   0.1644   0.1664   0.1670   0.1704   0.1725   0.1745
  0.1749   0.1768   0.1782   0.1800   0.1826   0.1856   0.1874   0.1876
  0.1911   0.1928   0.1963   0.1977   0.1994   0.2007   0.2031   0.2068
  0.2092   0.2102   0.2111   0.2135   0.2156   0.2204   0.2207   0.2227
  0.2248   0.2271   0.2286   0.2307   0.2340   0.2366   0.2388   0.2403
  0.2442   0.2456   0.2486   0.2491   0.2507   0.2519   0.2528   0.2543
  0.2584   0.2591   0.2630   0.2632   0.2650   0.2681   0.2705   0.2708
  0.2754   0.2770   0.2805   0.2819   0.2833   0.2869   0.2886   0.2908
  0.2926   0.2943   0.2969   0.2986   0.3014   0.3038   0.3040   0.3085
  0.3095   0.3122   0.3129   0.3151   0.3175   0.3182   0.3212   0.3226
  0.3237   0.3250   0.3294   0.3321   0.3335   0.3369   0.3378   0.3395
  0.3397   0.3423   0.3425   0.3439   0.3458   0.3476   0.3490   0.3503
  0.3513   0.3537   0.3550   0.3557   0.3574   0.3600   0.3608   0.3615
  0.3620   0.3648   0.3660   0.3668   0.3688   0.3699   0.3713   0.3738
  0.3743   0.3756   0.3772   0.3793   0.3809   0.3823   0.3843   0.3855
  0.3867   0.3883   0.3902   0.3906   0.3917   0.3950   0.3967   0.3971
  0.3998   0.4004   0.4021   0.4041   0.4055   0.4086   0.4116   0.4128
  0.4147   0.4169   0.4184   0.4200   0.4213   0.4238   0.4246   0.4263
  0.4288   0.4314   0.4334   0.4353   0.4361   0.4384   0.4414   0.4436
  0.4487   0.4511   0.4522   0.4542   0.4560   0.4591   0.4621   0.4632
  0.4669   0.4681   0.4713   0.4735   0.4762   0.4783   0.4801   0.4812
  0.4830   0.4866   0.4887   0.4911   0.4934   0.4941   0.4961   0.4993
  0.5026   0.5042   0.5068   0.5095   0.5100   0.5112   0.5147   0.5157
  0.5186   0.5222   0.5232   0.5270   0.5274   0.5296   0.5328   0.5334
  0.5361   0.5385   0.5411   0.5415   0.5467   0.5519   0.5525   0.5544
  0.5546   0.5584   0.5606   0.5627   0.5648   0.5684   0.5704   0.5707
  0.5733   0.5740   0.5770   0.5782   0.5795   0.5814   0.5843   0.5849
  0.5905   0.5917   0.5950   0.5955   0.5964   0.6005   0.6037   0.6068
  0.6121   0.6131   0.6152   0.6160   0.6199   0.6209   0.6221   0.6240
  0.6250   0.6301   0.6311   0.6329   0.6370   0.6424   0.6438   0.6443
  0.6470   0.6480   0.6525   0.6551   0.6573   0.6598   0.6600   0.6628
  0.6640   0.6684   0.6700   0.6752   0.6765   0.6786   0.6845   0.6873
  0.6881   0.6893   0.6951   0.6959   0.7007   0.7050   0.7057   0.7079
  0.7127   0.7146   0.7182   0.7196   0.7241   0.7275   0.7292   0.7309
  0.7332   0.7349   0.7380   0.7401   0.7429   0.7484   0.7526   0.7560
  0.7585   0.7594   0.7638   0.7659   0.7677   0.7709   0.7752   0.7761
  0.7791   0.7822   0.7873   0.7885   0.7942   0.7961   0.7985   0.7997
  0.8009   0.8052   0.8068   0.8104   0.8140   0.8155   0.8206   0.8249
  0.8271   0.8299   0.8315   0.8392   0.8440   0.8458   0.8496   0.8567
  0.8604   0.8628   0.8709   0.8720   0.8808   0.8870   0.8922   0.8971
  0.8979   0.9019   0.9056   0.9084   0.9116   0.9145   0.9178   0.9204
  0.9238   0.9254   0.9283   0.9307   0.9382   0.9410   0.9443   0.9476
  0.9512   0.9537   0.9594   0.9605   0.9624   0.9649   0.9697   0.9721
  0.9760   0.9786   0.9822   0.9839   0.9857   0.9925   0.9960   1.0016
  1.0029   1.0040   1.0098   1.0152   1.0173   1.0223   1.0252   1.0276
  1.0330   1.0349   1.0428   1.0474   1.0499   1.0539   1.0597   1.0622
  1.0657   1.0685   1.0744   1.0790   1.0859   1.0863   1.0918   1.0938
  1.0956   1.1014   1.1060   1.1073   1.1092   1.1134   1.1199   1.1218
  1.1235   1.1259   1.1280   1.1312   1.1352   1.1376   1.1414   1.1480
  1.1490   1.1502   1.1562   1.1579   1.1659   1.1687   1.1730   1.1746
  1.1774   1.1795   1.1861   1.1867   1.1927   1.1938   1.1965   1.2010
  1.2039   1.2080   1.2096   1.2110   1.2148   1.2182   1.2216   1.2233
  1.2251   1.2321   1.2348   1.2402   1.2426   1.2451   1.2479   1.2514
  1.2551   1.2575   1.2590   1.2646   1.2681   1.2711   1.2746   1.2763
  1.2810   1.2856   1.2875   1.2903   1.2962   1.3007   1.3024   1.3059
  1.3087   1.3129   1.3143   1.3206   1.3222   1.3296   1.3344   1.3369
  1.3409   1.3445   1.3504   1.3542   1.3547   1.3594   1.3626   1.3674
  1.3707   1.3794   1.3843   1.3926   1.3932   1.3960   1.4021   1.4045
  1.4058   1.4122   1.4195   1.4235   1.4289   1.4325   1.4396   1.4451
  1.4488   1.4532   1.4586   1.4620   1.4686   1.4764   1.4847   1.4866
  1.4896   1.4950   1.4992   1.5009   1.5064   1.5076   1.5148   1.5205
  1.5258   1.5310   1.5365   1.5373   1.5484   1.5525   1.5569   1.5607
  1.5622   1.5676   1.5746   1.5865   1.5869   1.5919   1.5988   1.6016
  1.6058   1.6141   1.6163   1.6206   1.6277   1.6291   1.6330   1.6349
  1.6399   1.6542   1.6549   1.6654   1.6717   1.6786   1.6810   1.6861
  1.6901   1.6956   1.7039   1.7058   1.7103   1.7148   1.7200   1.7250
  1.7277   1.7319   1.7357   1.7423   1.7514   1.7581   1.7607   1.7644
  1.7713   1.7764   1.7793   1.7861   1.7911   1.7951   1.7997   1.8070
  1.8107   1.8114   1.8183   1.8233   1.8241   1.8330   1.8377   1.8432
  1.8465   1.8516   1.8552   1.8568   1.8624   1.8668   1.8695   1.8766
  1.8800   1.8851   1.8879   1.8943   1.9027   1.9055   1.9100   1.9134
  1.9209   1.9261   1.9322   1.9368   1.9505   1.9543   1.9631   1.9694
  1.9706   1.9754   1.9843   1.9859   1.9920   1.9964   2.0021   2.0043
  2.0074   2.0147   2.0216   2.0240   2.0287   2.0352   2.0408   2.0449
  2.0496   2.0537   2.0598   2.0605   2.0653   2.0687   2.0760   2.0769
  2.0813   2.0854   2.0890   2.0930   2.0976   2.1002   2.1010   2.1063
  2.1078   2.1162   2.1210   2.1242   2.1303   2.1333   2.1375   2.1432
  2.1489   2.1513   2.1547   2.1655   2.1724   2.1794   2.1832   2.1848
  2.1877   2.1946   2.1959   2.2071   2.2102   2.2247   2.2307   2.2338
  2.2501   2.2560   2.2580   2.2677   2.2719   2.2807   2.2837   2.3206
  2.3224   2.3256   2.3357   2.3441   2.3486   2.3511   2.3556   2.3636
  2.3672   2.3718   2.3753   2.3784   2.3820   2.3837   2.3887   2.3915
  2.4008   2.4038   2.4105   2.4161   2.4207   2.4264   2.4344   2.4396
  2.4404   2.4434   2.4511   2.4530   2.4599   2.4616   2.4720   2.4781
  2.4836   2.4839   2.4958   2.5026   2.5119   2.5202   2.5220   2.5231
  2.5319   2.5404   2.5463   2.5550   2.5556   2.5637   2.5641   2.5659
  2.5722   2.5782   2.5798   2.5882   2.5950   2.5992   2.6056   2.6145
  2.6177   2.6234   2.6307   2.6337   2.6366   2.6702   2.6743   2.6883
  2.6939   2.7087   2.7114   2.7527   2.8104   2.8574   2.8639   2.8747
  2.8843   2.8860   2.8894   2.8941   2.9000   2.9008   2.9050   2.9112
  2.9128   2.9183   2.9252   2.9376   2.9398   2.9410   2.9537   2.9649
  2.9712   2.9882   2.9933   3.0009   3.0310   3.0334   3.0346   3.0391
  3.0570   3.0603   3.0682   3.0779   3.0867   3.0884   3.0926   3.1165
  3.1261   3.1307   3.1561   3.1589   3.1608   3.1646   3.1866   3.1956
  3.1982   3.2048   3.2132   3.2481   3.2661   3.2781   3.2801   3.2899
  3.2924   3.3370   3.3625   3.3686   3.3751   3.3905   3.6102   3.6834
  3.6890   3.7094   3.7110   3.7285
 
 Beta MOs
 -- Occupied --
-89.1217 -89.0614 -10.3131 -10.3066 -10.3060 -10.2843 -10.2816 -10.2731
-10.2729 -10.2720 -10.2702 -10.2691 -10.2689 -10.2683 -10.2675 -10.2668
-10.2606 -10.2602 -10.2597 -10.2578 -10.2576 -10.2572 -10.2558 -10.2540
-10.2521 -10.2506 -10.2498 -10.2365 -10.2361 -10.2341 -10.2263 -10.2253
-10.2246 -10.2213 -10.2102 -10.2024 -10.1973 -10.1565  -8.1482  -8.0901
 -6.0230  -6.0229  -6.0167  -5.9657  -5.9637  -5.9586  -0.9533  -0.9105
 -0.9085  -0.9055  -0.8801  -0.8713  -0.8513  -0.8283  -0.8049  -0.7987
 -0.7935  -0.7917  -0.7855  -0.7809  -0.7750  -0.7586  -0.7509  -0.7430
 -0.7236  -0.7067  -0.6621  -0.6591  -0.6522  -0.6451  -0.6398  -0.6388
 -0.6339  -0.6158  -0.6104  -0.6016  -0.5856  -0.5716  -0.5677  -0.5621
 -0.5465  -0.5462  -0.5233  -0.5160  -0.5123  -0.5108  -0.5028  -0.4968
 -0.4929  -0.4906  -0.4828  -0.4797  -0.4738  -0.4708  -0.4696  -0.4689
 -0.4654  -0.4614  -0.4528  -0.4463  -0.4427  -0.4403  -0.4355  -0.4339
 -0.4279  -0.4224  -0.4186  -0.4173  -0.4116  -0.4010  -0.3993  -0.3986
 -0.3940  -0.3901  -0.3883  -0.3838  -0.3808  -0.3779  -0.3739  -0.3649
 -0.3615  -0.3561  -0.3443  -0.3259  -0.3209  -0.3188  -0.3133  -0.3058
 -0.3054  -0.3013  -0.2994  -0.2942  -0.2739  -0.2698  -0.2496  -0.2412
 -0.1767
 -- Virtual --
 -0.1751  -0.1351  -0.1284  -0.1172  -0.1109  -0.1055  -0.0988  -0.0956
 -0.0935  -0.0824  -0.0679  -0.0656  -0.0641  -0.0529  -0.0450  -0.0405
 -0.0326  -0.0267  -0.0227  -0.0193  -0.0167  -0.0080  -0.0073  -0.0035
 -0.0022   0.0028   0.0069   0.0088   0.0126   0.0157   0.0177   0.0206
  0.0231   0.0277   0.0305   0.0340   0.0353   0.0364   0.0389   0.0410
  0.0446   0.0461   0.0509   0.0521   0.0540   0.0576   0.0599   0.0622
  0.0640   0.0655   0.0675   0.0702   0.0759   0.0785   0.0823   0.0841
  0.0861   0.0883   0.0895   0.0907   0.0970   0.0987   0.1021   0.1036
  0.1047   0.1056   0.1109   0.1138   0.1142   0.1173   0.1177   0.1215
  0.1223   0.1252   0.1288   0.1304   0.1340   0.1347   0.1361   0.1374
  0.1414   0.1420   0.1445   0.1463   0.1494   0.1501   0.1527   0.1555
  0.1581   0.1611   0.1638   0.1657   0.1675   0.1685   0.1707   0.1735
  0.1748   0.1758   0.1785   0.1787   0.1804   0.1836   0.1861   0.1879
  0.1886   0.1919   0.1944   0.1970   0.1980   0.1999   0.2014   0.2035
  0.2076   0.2095   0.2112   0.2127   0.2142   0.2166   0.2207   0.2211
  0.2235   0.2256   0.2276   0.2296   0.2314   0.2344   0.2371   0.2394
  0.2412   0.2444   0.2471   0.2490   0.2502   0.2518   0.2523   0.2539
  0.2545   0.2586   0.2610   0.2632   0.2640   0.2661   0.2685   0.2712
  0.2715   0.2764   0.2773   0.2811   0.2833   0.2836   0.2883   0.2889
  0.2914   0.2936   0.2956   0.2974   0.2995   0.3028   0.3045   0.3058
  0.3090   0.3102   0.3127   0.3140   0.3163   0.3180   0.3204   0.3215
  0.3235   0.3250   0.3262   0.3296   0.3326   0.3351   0.3374   0.3381
  0.3404   0.3416   0.3428   0.3441   0.3444   0.3463   0.3490   0.3494
  0.3519   0.3525   0.3545   0.3556   0.3564   0.3579   0.3607   0.3612
  0.3618   0.3637   0.3655   0.3673   0.3681   0.3705   0.3710   0.3719
  0.3745   0.3749   0.3765   0.3787   0.3807   0.3821   0.3828   0.3849
  0.3864   0.3872   0.3893   0.3911   0.3914   0.3927   0.3955   0.3975
  0.3991   0.4003   0.4016   0.4030   0.4046   0.4066   0.4093   0.4122
  0.4136   0.4148   0.4178   0.4195   0.4208   0.4232   0.4243   0.4250
  0.4271   0.4301   0.4324   0.4344   0.4357   0.4369   0.4386   0.4424
  0.4444   0.4501   0.4518   0.4524   0.4551   0.4583   0.4600   0.4636
  0.4638   0.4676   0.4699   0.4719   0.4741   0.4773   0.4786   0.4811
  0.4820   0.4850   0.4873   0.4893   0.4916   0.4939   0.4945   0.4972
  0.4997   0.5033   0.5054   0.5072   0.5098   0.5107   0.5117   0.5151
  0.5188   0.5192   0.5231   0.5249   0.5277   0.5282   0.5299   0.5332
  0.5349   0.5369   0.5391   0.5414   0.5421   0.5471   0.5524   0.5528
  0.5547   0.5575   0.5588   0.5609   0.5638   0.5664   0.5690   0.5708
  0.5718   0.5747   0.5753   0.5775   0.5798   0.5801   0.5827   0.5849
  0.5861   0.5914   0.5922   0.5958   0.5964   0.5972   0.6010   0.6042
  0.6073   0.6129   0.6139   0.6158   0.6167   0.6208   0.6222   0.6237
  0.6246   0.6264   0.6310   0.6324   0.6335   0.6375   0.6434   0.6442
  0.6454   0.6477   0.6485   0.6536   0.6559   0.6577   0.6603   0.6609
  0.6633   0.6646   0.6694   0.6713   0.6765   0.6779   0.6791   0.6848
  0.6878   0.6884   0.6896   0.6956   0.6968   0.7012   0.7052   0.7063
  0.7083   0.7130   0.7150   0.7188   0.7201   0.7250   0.7282   0.7298
  0.7318   0.7339   0.7360   0.7392   0.7406   0.7438   0.7490   0.7531
  0.7566   0.7594   0.7606   0.7641   0.7666   0.7683   0.7713   0.7758
  0.7766   0.7793   0.7828   0.7879   0.7892   0.7947   0.7968   0.7991
  0.8004   0.8019   0.8059   0.8074   0.8108   0.8147   0.8166   0.8213
  0.8257   0.8276   0.8304   0.8329   0.8402   0.8448   0.8464   0.8501
  0.8579   0.8610   0.8632   0.8714   0.8725   0.8814   0.8875   0.8928
  0.8986   0.9001   0.9031   0.9062   0.9095   0.9127   0.9150   0.9207
  0.9225   0.9248   0.9256   0.9289   0.9347   0.9404   0.9431   0.9458
  0.9483   0.9516   0.9543   0.9607   0.9611   0.9628   0.9667   0.9701
  0.9725   0.9762   0.9790   0.9827   0.9848   0.9863   0.9930   0.9990
  1.0019   1.0041   1.0049   1.0126   1.0162   1.0177   1.0227   1.0258
  1.0285   1.0340   1.0355   1.0441   1.0484   1.0530   1.0554   1.0607
  1.0630   1.0699   1.0765   1.0802   1.0845   1.0872   1.0906   1.0934
  1.0951   1.0972   1.1025   1.1073   1.1077   1.1135   1.1140   1.1213
  1.1230   1.1262   1.1272   1.1284   1.1325   1.1382   1.1416   1.1440
  1.1489   1.1500   1.1532   1.1574   1.1592   1.1672   1.1709   1.1740
  1.1759   1.1786   1.1832   1.1877   1.1895   1.1938   1.1974   1.1999
  1.2023   1.2045   1.2089   1.2103   1.2125   1.2157   1.2203   1.2237
  1.2249   1.2271   1.2330   1.2355   1.2407   1.2450   1.2458   1.2491
  1.2518   1.2569   1.2593   1.2602   1.2672   1.2694   1.2729   1.2763
  1.2780   1.2821   1.2883   1.2890   1.2914   1.2972   1.3013   1.3036
  1.3071   1.3097   1.3146   1.3159   1.3228   1.3238   1.3303   1.3356
  1.3381   1.3413   1.3452   1.3510   1.3546   1.3569   1.3606   1.3638
  1.3684   1.3714   1.3807   1.3861   1.3931   1.3942   1.3969   1.4031
  1.4061   1.4064   1.4130   1.4200   1.4243   1.4298   1.4342   1.4409
  1.4454   1.4500   1.4536   1.4597   1.4626   1.4702   1.4774   1.4850
  1.4880   1.4910   1.4957   1.5007   1.5013   1.5088   1.5108   1.5171
  1.5216   1.5309   1.5344   1.5369   1.5385   1.5490   1.5528   1.5575
  1.5626   1.5638   1.5688   1.5751   1.5875   1.5902   1.5926   1.5996
  1.6039   1.6067   1.6153   1.6172   1.6210   1.6296   1.6326   1.6347
  1.6366   1.6418   1.6546   1.6561   1.6664   1.6720   1.6795   1.6813
  1.6889   1.6905   1.6970   1.7041   1.7060   1.7112   1.7165   1.7205
  1.7258   1.7305   1.7323   1.7364   1.7437   1.7518   1.7605   1.7644
  1.7683   1.7717   1.7779   1.7806   1.7887   1.7916   1.7976   1.8033
  1.8086   1.8117   1.8134   1.8218   1.8247   1.8264   1.8331   1.8401
  1.8467   1.8480   1.8532   1.8580   1.8593   1.8642   1.8672   1.8733
  1.8806   1.8835   1.8872   1.8905   1.8949   1.9037   1.9078   1.9110
  1.9147   1.9236   1.9305   1.9354   1.9382   1.9552   1.9584   1.9655
  1.9714   1.9731   1.9762   1.9882   1.9912   1.9924   1.9983   2.0044
  2.0056   2.0137   2.0186   2.0228   2.0259   2.0290   2.0373   2.0435
  2.0473   2.0537   2.0548   2.0602   2.0622   2.0659   2.0696   2.0775
  2.0784   2.0822   2.0861   2.0911   2.0965   2.0980   2.1023   2.1028
  2.1077   2.1093   2.1175   2.1223   2.1263   2.1319   2.1342   2.1379
  2.1440   2.1494   2.1523   2.1642   2.1664   2.1730   2.1798   2.1840
  2.1860   2.1879   2.1952   2.1964   2.2086   2.2113   2.2257   2.2317
  2.2378   2.2519   2.2585   2.2646   2.2691   2.2798   2.2835   2.2933
  2.3231   2.3263   2.3314   2.3376   2.3472   2.3498   2.3530   2.3558
  2.3668   2.3679   2.3724   2.3774   2.3797   2.3830   2.3848   2.3905
  2.3946   2.4012   2.4043   2.4142   2.4174   2.4233   2.4305   2.4370
  2.4401   2.4437   2.4444   2.4527   2.4553   2.4615   2.4640   2.4723
  2.4788   2.4875   2.4901   2.4968   2.5040   2.5125   2.5206   2.5234
  2.5269   2.5379   2.5427   2.5471   2.5566   2.5634   2.5640   2.5664
  2.5697   2.5749   2.5786   2.5812   2.5887   2.5951   2.6011   2.6071
  2.6146   2.6178   2.6238   2.6309   2.6352   2.6372   2.6721   2.6866
  2.6922   2.6944   2.7088   2.7118   2.7529   2.8196   2.8575   2.8664
  2.8795   2.8860   2.8888   2.8936   2.8952   2.9002   2.9014   2.9096
  2.9114   2.9169   2.9191   2.9257   2.9376   2.9399   2.9415   2.9537
  2.9649   2.9849   2.9885   2.9938   3.0015   3.0312   3.0354   3.0363
  3.0546   3.0577   3.0607   3.0721   3.0808   3.0873   3.0893   3.0980
  3.1176   3.1267   3.1392   3.1567   3.1590   3.1609   3.1647   3.1873
  3.1958   3.2048   3.2106   3.2136   3.2482   3.2662   3.2782   3.2802
  3.2910   3.3109   3.3371   3.3627   3.3687   3.3751   3.3907   3.6238
  3.6835   3.6890   3.7095   3.7110   3.7285
 --------------------------------------------------------------
 
          Ground-State Mulliken Net Atomic Charges

     Atom                 Charge (a.u.)    Spin (a.u.)
  --------------------------------------------------------
      1 S                    -1.530047       0.011554
      2 C                    -1.301301      -0.006939
      3 C                     0.577914       0.006281
      4 H                     0.355395      -0.000192
      5 C                    -0.325594      -0.004156
      6 H                     0.264699       0.000440
      7 C                    -0.084465       0.005728
      8 H                     0.566890      -0.000452
      9 C                    -0.351344      -0.003988
     10 H                     0.259464       0.000389
     11 C                     0.706084       0.007313
     12 H                     0.324117       0.000263
     13 C                    -0.548042       0.104137
     14 C                     0.940653      -0.291386
     15 H                    -0.456710       0.058728
     16 C                    -0.131355       1.312805
     17 C                     0.293754      -0.229776
     18 H                    -0.222379       0.014584
     19 C                    -0.085056       0.076082
     20 H                     0.140942       0.003657
     21 C                     0.342766      -0.080803
     22 H                     0.481560       0.006068
     23 C                    -1.742876      -0.001558
     24 C                     0.590858      -0.002581
     25 H                     0.632439       0.002657
     26 C                    -0.589493       0.000022
     27 H                     0.386768      -0.000164
     28 C                     0.036082      -0.000236
     29 H                     0.888123       0.000060
     30 C                     0.060270      -0.000151
     31 H                    -0.628228       0.000105
     32 C                     0.741724       0.000579
     33 H                     0.360320      -0.000458
     34 S                    -1.788063       0.000067
     35 C                    -1.811511       0.000163
     36 C                     0.880549      -0.000176
     37 H                     0.334923      -0.000007
     38 C                    -0.296959      -0.000024
     39 H                     0.055342      -0.000495
     40 C                     0.127698      -0.000575
     41 H                     0.485974       0.002135
     42 C                    -0.334193       0.000104
     43 H                     0.170377      -0.000051
     44 C                     0.956347      -0.000334
     45 H                     0.316339       0.000007
     46 C                    -0.172221      -0.001074
     47 C                    -0.564219       0.011393
     48 C                     0.138722      -0.000590
     49 H                    -0.262693       0.000274
     50 C                     0.036237       0.000617
     51 H                     0.259015       0.000092
     52 C                    -0.463407      -0.000421
     53 H                     0.362027      -0.000052
     54 C                     0.857980       0.000187
     55 H                    -0.238178       0.000183
     56 C                    -1.129432       0.000294
     57 C                     0.641429      -0.000436
     58 H                     0.133592       0.000028
     59 C                    -0.317342       0.000283
     60 H                     0.191204      -0.000022
     61 C                    -0.091464      -0.000196
     62 H                     0.453023       0.000012
     63 C                    -0.408065       0.000114
     64 H                     0.315063      -0.000012
     65 C                     0.707666      -0.000140
     66 H                     0.500306       0.000039
  --------------------------------------------------------
  Sum of atomic charges =     1.000000
  Sum of spin   charges =     1.000000

  Building new vdw surfaces
         Merz-Kollman RESP Net Atomic Charges

     Atom                 Charge (a.u.)
  ----------------------------------------
      1 S                    -0.086343
      2 C                     0.500455
      3 C                    -0.351281
      4 H                     0.208621
      5 C                    -0.020845
      6 H                     0.149018
      7 C                    -0.176277
      8 H                     0.164606
      9 C                     0.012457
     10 H                     0.141451
     11 C                    -0.427309
     12 H                     0.226492
     13 C                     0.286564
     14 C                    -0.166167
     15 H                     0.180152
     16 C                    -0.029010
     17 C                    -0.088551
     18 H                     0.166708
     19 C                    -0.062539
     20 H                     0.156841
     21 C                    -0.309919
     22 H                     0.203810
     23 C                     0.134756
     24 C                    -0.283526
     25 H                     0.199277
     26 C                    -0.042390
     27 H                     0.148263
     28 C                    -0.146797
     29 H                     0.161344
     30 C                    -0.044960
     31 H                     0.116225
     32 C                    -0.132761
     33 H                     0.148862
     34 S                    -0.250792
     35 C                     0.269175
     36 C                    -0.216839
     37 H                     0.176318
     38 C                    -0.090404
     39 H                     0.144055
     40 C                    -0.175767
     41 H                     0.157026
     42 C                    -0.069256
     43 H                     0.151454
     44 C                    -0.217828
     45 H                     0.143619
     46 C                     0.917562
     47 C                    -0.984130
     48 C                     0.307192
     49 H                     0.033125
     50 C                    -0.423837
     51 H                     0.160497
     52 C                     0.085872
     53 H                     0.106021
     54 C                    -0.663771
     55 H                     0.219782
     56 C                     0.405711
     57 C                    -0.311411
     58 H                     0.219849
     59 C                    -0.109941
     60 H                     0.152314
     61 C                    -0.114803
     62 H                     0.135012
     63 C                    -0.065145
     64 H                     0.135359
     65 C                    -0.378586
     66 H                     0.215340
  ----------------------------------------
  Sum of atomic charges =     1.000000

  Related Dipole Moment =    20.7324 (X  4.6817 Y 14.5502 Z 14.0073)

 -----------------------------------------------------------------
                    Cartesian Multipole Moments
 -----------------------------------------------------------------
    Charge (ESU x 10^10)
                 4.8032
    Dipole Moment (Debye)
         X       4.6680      Y      14.5631      Z      14.0383
       Tot      20.7593
    Quadrupole Moments (Debye-Ang)
        XX    -206.1027     XY     -10.7801     YY    -168.4153
        XZ     -18.0798     YZ      18.9305     ZZ    -194.9431
    Octopole Moments (Debye-Ang^2)
       XXX      14.6974    XXY     138.3153    XYY     122.8851
       YYY     213.2295    XXZ      81.8074    XYZ      76.7167
       YYZ     140.8018    XZZ      -7.6307    YZZ     261.7648
       ZZZ     235.6907
    Hexadecapole Moments (Debye-Ang^3)
      XXXX   -5324.5279   XXXY    -632.1185   XXYY   -3249.2910
      XYYY    -408.4271   YYYY  -14121.0605   XXXZ    -890.7748
      XXYZ   -1144.0812   XYYZ    -322.8498   YYYZ   -3293.2348
      XXZZ   -2182.3781   XYZZ    -285.9809   YYZZ   -3896.1759
      XZZZ   -1024.4178   YZZZ   -4335.5989   ZZZZ   -9554.7988
 -----------------------------------------------------------------
 Calculating analytic gradient of the SCF energy
 Gradient of SCF Energy
            1           2           3           4           5           6
    1   0.0017087   0.0218858   0.0028319   0.0460448   0.0125550  -0.0050792
    2  -0.0115125   0.0110629  -0.0109548  -0.0226630  -0.0220526  -0.0290474
    3   0.0109236   0.0038402  -0.0099841  -0.0059753   0.0045122   0.0321591
            7           8           9          10          11          12
    1  -0.0371199  -0.0454890   0.0108922  -0.0242228   0.0038435   0.0197673
    2   0.0085067   0.0123076  -0.0057977   0.0348748   0.0182115   0.0064258
    3   0.0227340   0.0301874  -0.0194722  -0.0172887  -0.0089914  -0.0397217
           13          14          15          16          17          18
    1  -0.0254866   0.0089878   0.0190691   0.0067320   0.0085482   0.0202770
    2  -0.0344423   0.0095974  -0.0173399  -0.0046504  -0.0053986   0.0225781
    3  -0.0434543   0.0018867  -0.0061501  -0.0060857  -0.0074661   0.0133628
           19          20          21          22          23          24
    1   0.0082986  -0.0106322  -0.0053565  -0.0465430  -0.0205818   0.0107113
    2  -0.0093813   0.0358115   0.0169693  -0.0073232   0.0082468   0.0179986
    3  -0.0073468   0.0205536   0.0283592   0.0075201   0.0260487  -0.0064450
           25          26          27          28          29          30
    1   0.0272333   0.0099124   0.0277019  -0.0068470  -0.0176811  -0.0067836
    2   0.0100535   0.0049104   0.0377934  -0.0027291   0.0014585  -0.0430435
    3   0.0560054   0.0124306  -0.0112463  -0.0368650  -0.0542793  -0.0066386
           31          32          33          34          35          36
    1  -0.0304328   0.0232182  -0.0032398  -0.0230974   0.0158161  -0.0188147
    2  -0.0002971   0.0020528  -0.0173399  -0.0048296  -0.0025612  -0.0019197
    3  -0.0021144   0.0003440   0.0296835   0.0047025  -0.0079038  -0.0118946
           37          38          39          40          41          42
    1  -0.0269312  -0.0302727   0.0201683   0.0294909   0.0626623  -0.0389565
    2  -0.0209419  -0.0128939  -0.0077546   0.0522244   0.0188449  -0.0162480
    3   0.0100770   0.0252899   0.0454517   0.0143148  -0.0039185  -0.0077623
           43          44          45          46          47          48
    1   0.0130877  -0.0030200  -0.0163778   0.0180943  -0.0011842   0.0032961
    2   0.0192493  -0.0133175  -0.0145513   0.0009266  -0.0013675  -0.0058128
    3  -0.0389022  -0.0150678  -0.0163381   0.0149126   0.0018867   0.0006717
           49          50          51          52          53          54
    1  -0.0002950   0.0007423  -0.0099029  -0.0022608  -0.0142949   0.0022863
    2  -0.0031755  -0.0103647   0.0038507  -0.0095043   0.0211031   0.0016305
    3  -0.0031082  -0.0091883  -0.0141111  -0.0062264   0.0031203  -0.0049846
           55          56          57          58          59          60
    1   0.0001299   0.0000235   0.0056806  -0.0071374  -0.0114177  -0.0107576
    2  -0.0062340  -0.0090653   0.0089518   0.0066759   0.0019970  -0.0132473
    3   0.0081026  -0.0202694   0.0016239   0.0097794   0.0082471  -0.0004809
           61          62          63          64          65          66
    1   0.0048438   0.0101912  -0.0025410   0.0236452   0.0037700  -0.0013906
    2  -0.0145542  -0.0193700   0.0072374   0.0030122   0.0059060   0.0212168
    3  -0.0098534  -0.0116083   0.0016080  -0.0010868   0.0067562   0.0151341
 Max gradient component =       6.266E-02
 RMS gradient           =       1.896E-02
 Computing fast CPCM-SWIG gradient
 Updating gradient with PCM contributions...
 -- total gradient after adding PCM contribution --
---------------------------------------------------
  Atom         X              Y              Z     
---------------------------------------------------
   1       0.000398      -0.000412      -0.000240
   2       0.000027       0.000339      -0.000145
   3      -0.000370       0.000004       0.000329
   4       0.000120      -0.000067      -0.000112
   5       0.000228      -0.000220      -0.000058
   6       0.000005       0.000119       0.000031
   7      -0.000070       0.000152      -0.000166
   8       0.000013      -0.000020      -0.000001
   9      -0.000039      -0.000066       0.000177
  10      -0.000012       0.000004       0.000037
  11       0.000094      -0.000011       0.000034
  12      -0.000111      -0.000180      -0.000085
  13      -0.000606      -0.000646       0.000049
  14       0.000877      -0.001146       0.001950
  15       0.000489       0.002023      -0.002479
  16      -0.000317      -0.000232       0.000158
  17       0.000132      -0.000039      -0.000181
  18      -0.000073      -0.000022       0.000148
  19      -0.000314      -0.000215       0.000039
  20       0.000054       0.000115      -0.000146
  21      -0.000039       0.000677      -0.000536
  22       0.000117      -0.000025       0.000176
  23       0.000098       0.000318       0.000537
  24      -0.000255      -0.000019       0.000185
  25      -0.000067       0.000060      -0.000154
  26      -0.000027      -0.000019      -0.000158
  27       0.000044      -0.000012       0.000050
  28      -0.000114       0.000282      -0.000039
  29       0.000128      -0.000102      -0.000025
  30       0.000551      -0.000865       0.000252
  31      -0.000647       0.000551       0.000340
  32       0.000379      -0.000194      -0.000747
  33      -0.001322      -0.000544       0.000213
  34       0.000429      -0.000103       0.000067
  35      -0.001536       0.001225       0.000280
  36       0.000783      -0.000931      -0.000098
  37      -0.000095       0.000098      -0.000046
  38       0.000063       0.000016       0.000150
  39       0.000186      -0.000087      -0.000151
  40      -0.001265       0.001631      -0.000938
  41       0.000087      -0.001515       0.001635
  42      -0.000636       0.000384       0.000113
  43       0.000261      -0.000240       0.000035
  44       0.001376      -0.000763      -0.000195
  45      -0.000093      -0.000145       0.000014
  46      -0.000319      -0.000164       0.000310
  47       0.000079       0.000022      -0.000142
  48       0.000056       0.000031      -0.000006
  49      -0.000001       0.000009       0.000050
  50      -0.000100       0.000031       0.000302
  51       0.000052      -0.000069      -0.000057
  52       0.000048       0.000177      -0.000307
  53       0.000181      -0.000154      -0.000232
  54      -0.001918      -0.000270       0.001036
  55       0.002916       0.001230      -0.001052
  56       0.000284      -0.000203      -0.000188
  57      -0.000188       0.000140      -0.000307
  58       0.000023      -0.000019       0.000116
  59      -0.000130       0.000096      -0.000128
  60       0.000081      -0.000053       0.000115
  61       0.000161       0.000090       0.000105
  62      -0.000070      -0.000012      -0.000009
  63      -0.000068      -0.000118      -0.000105
  64      -0.000012       0.000010       0.000028
  65       0.000089      -0.000093       0.000284
  66      -0.000095       0.000156      -0.000117
---------------------------------------------------
 Number of fixed atoms: 0
 Gradient time:  CPU 1897.22 s  wall 203.78 s
Initial Energy: -2.18326813e+03

 *****************************************************
             Starting BFGS Algorithm
 *****************************************************
            LIBOPT3 RUN PARAMETERS

  Geometry Optimization Coordinates :
	Internal Coordinates

  Step Length Selection Method :
	Eigenvector Following Algorithm

  Convergence Criteria :
	Max Gradient Component    	3.00000000e-04
	Max Displacement Component	1.20000000e-03
	Absolute Energy Difference	1.00000000e-06

  Initial Hessian :
	Approximate Hessian - Simple Internal Coordinate Scaled

  Type of Verification :
	Verify with final updated Hessian
 *****************************************************

	OPTIMIZATION CYCLE:	1

 All Eigenvalues from Projected Hessian
   0.10000000   0.10000000   0.10000000   0.10000000   0.10000000
   0.10000000   0.10000000   0.10000000   0.10000000   0.10000000
   0.10000000   0.10000000   0.10000000   0.10000000   0.10000000
   0.10000000   0.10000000   0.10000000   0.10000000   0.10000000
   0.10000000   0.10000000   0.10000000   0.10000000   0.10000000
   0.10000000   0.10000000   0.10000000   0.10000000   0.10000000
   0.10000000   0.10000000   0.10000000   0.10000000   0.10000000
   0.10000000   0.10000000   0.10000000   0.10000000   0.10000000
   0.10000000   0.10000000   0.10000000   0.10000000   0.10000000
   0.10000000   0.10000000   0.10000000   0.10000000   0.10000000
   0.10000000   0.10000000   0.10000000   0.10000000   0.10000000
   0.10000000   0.10000000   0.10000000   0.10000000   0.10000000
   0.10000000   0.10000000   0.10000000   0.10000000   0.10000000
   0.10000000   0.10000000   0.10000000   0.10000000   0.10000000
   0.10000000   0.10000000   0.10000000   0.10000000   0.10000000
   0.10000000   0.10000000   0.10000000   0.10000000   0.10000000
   0.10000000   0.10000000   0.10000000   0.10000000   0.10000000
   0.10000000   0.10000000   0.10000000   0.10000000   0.10000000
   0.10000000   0.10000000   0.10000000   0.10000000   0.10000000
   0.10000000   0.10000000   0.10000000   0.10000000   0.10000000
   0.10000000   0.10000000   0.10000000   0.10000000   0.10000000
   0.10000000   0.10000000   0.10000000   0.10000000   0.10000000
   0.10000000   0.10000000   0.10000000   0.10000000   0.10000000
   0.10000000   0.10000000   0.10000000   0.10000000   0.10000000
   0.10000000   0.10000000   0.10000000   0.10000000   0.10000000
   0.10000000   0.10000000   0.10000000   0.10000000   0.10000000
   0.10000000   0.10000000   0.10000000   0.10000000   0.10000000
   0.10000000   0.10000000   0.10000000   0.10000000   0.10000000
   0.10000000   0.10000000   0.10000000   0.10000000   0.10000000
   0.10000000   0.10000000   0.10000000   0.10000000   0.10000000
   0.10000000   0.10000000   0.10000000   0.10000000   0.10000000
   0.10000000   0.10000000   0.10000000   0.10000000   0.10000000
   0.10000000   0.10000000   0.10000000   0.10000000   0.10000000
   0.10000000   0.10000000   0.10000000   0.10000000   0.10000000
   0.10000000   0.10000000   0.10000000   0.10000000   0.10000000
   0.10000000   0.10000000   0.10000000   0.10000000   0.10000000
   0.10000000   0.10000000   0.10000000   0.10000000   0.10000000
   0.20000000   0.20000000   0.20000000   0.20000000   0.20000000
   0.20000000   0.20000000   0.20000000   0.20000000   0.20000000
   0.20000000   0.20000000   0.20000000   0.20000000   0.20000000
   0.20000000   0.20000000   0.20000000   0.20000000   0.20000000
   0.20000000   0.20000000   0.20000000   0.20000000   0.20000000
   0.20000000   0.20000000   0.20000000   0.20000000   0.20000000
   0.20000000   0.20000000   0.20000000   0.20000000   0.20000000
   0.20000000   0.20000000   0.20000000   0.20000000   0.20000000
   0.20000000   0.20000000   0.20000000   0.20000000   0.20000000
   0.20000000   0.20000000   0.20000000   0.20000000   0.20000000
   0.20000000   0.20000000   0.20000000   0.20000000   0.20000000
   0.20000000   0.20000000   0.20000000   0.20000000   0.20000000
   0.20000000   0.20000000   0.20000000   0.20000000   0.20000000
   0.20000000   0.20000000   0.20000000   0.20000000   0.20000000
   0.20000000   0.20000000   0.20000000   0.20000000   0.20000000
   0.20000000   0.20000000   0.20000000   0.20000000   0.20000000
   0.20000000   0.20000000   0.20000000   0.20000000   0.20000000
   0.20000000   0.20000000   0.20000000   0.20000000   0.20000000
   0.20000000   0.20000000   0.20000000   0.20000000   0.20000000
   0.20000000   0.20000000   0.20000000   0.20000000   0.20000000
   0.20000000   0.20000000   0.20000000   0.20000000   0.20000000
   0.20000000   0.20000000   0.20000000   0.20000000   0.20000000
   0.20000000   0.20000000   0.20000000   0.20000000   0.20000000
   0.20000000   0.20000000   0.20000000   0.20000000   0.20000000
   0.50000000   0.50000000   0.50000000   0.50000000   0.50000000
   0.50000000   0.50000000   0.50000000   0.50000000   0.50000000
   0.50000000   0.50000000   0.50000000   0.50000000   0.50000000
   0.50000000   0.50000000   0.50000000   0.50000000   0.50000000
   0.50000000   0.50000000   0.50000000   0.50000000   0.50000000
   0.50000000   0.50000000   0.50000000   0.50000000   0.50000000
   0.50000000   0.50000000   0.50000000   0.50000000   0.50000000
   0.50000000   0.50000000   0.50000000   0.50000000   0.50000000
   0.50000000   0.50000000   0.50000000   0.50000000   0.50000000
   0.50000000   0.50000000   0.50000000   0.50000000   0.50000000
   0.50000000   0.50000000   0.50000000   0.50000000   0.50000000
   0.50000000   0.50000000   0.50000000   0.50000000   0.50000000
   0.50000000   0.50000000   0.50000000   0.50000000   0.50000000
   0.50000000   0.50000000   0.50000000   0.50000000   0.50000000
   0.50000000   0.50000000   0.50000000   0.50000000

 Scaling Magnitute of eigenvalues
 Minimum: -25.00000000
 Maximum: 25.00000000
 379 Hessian Eigenvalues to form next step
   0.10000000   0.10000000   0.10000000   0.10000000   0.10000000
   0.10000000   0.10000000   0.10000000   0.10000000   0.10000000
   0.10000000   0.10000000   0.10000000   0.10000000   0.10000000
   0.10000000   0.10000000   0.10000000   0.10000000   0.10000000
   0.10000000   0.10000000   0.10000000   0.10000000   0.10000000
   0.10000000   0.10000000   0.10000000   0.10000000   0.10000000
   0.10000000   0.10000000   0.10000000   0.10000000   0.10000000
   0.10000000   0.10000000   0.10000000   0.10000000   0.10000000
   0.10000000   0.10000000   0.10000000   0.10000000   0.10000000
   0.10000000   0.10000000   0.10000000   0.10000000   0.10000000
   0.10000000   0.10000000   0.10000000   0.10000000   0.10000000
   0.10000000   0.10000000   0.10000000   0.10000000   0.10000000
   0.10000000   0.10000000   0.10000000   0.10000000   0.10000000
   0.10000000   0.10000000   0.10000000   0.10000000   0.10000000
   0.10000000   0.10000000   0.10000000   0.10000000   0.10000000
   0.10000000   0.10000000   0.10000000   0.10000000   0.10000000
   0.10000000   0.10000000   0.10000000   0.10000000   0.10000000
   0.10000000   0.10000000   0.10000000   0.10000000   0.10000000
   0.10000000   0.10000000   0.10000000   0.10000000   0.10000000
   0.10000000   0.10000000   0.10000000   0.10000000   0.10000000
   0.10000000   0.10000000   0.10000000   0.10000000   0.10000000
   0.10000000   0.10000000   0.10000000   0.10000000   0.10000000
   0.10000000   0.10000000   0.10000000   0.10000000   0.10000000
   0.10000000   0.10000000   0.10000000   0.10000000   0.10000000
   0.10000000   0.10000000   0.10000000   0.10000000   0.10000000
   0.10000000   0.10000000   0.10000000   0.10000000   0.10000000
   0.10000000   0.10000000   0.10000000   0.10000000   0.10000000
   0.10000000   0.10000000   0.10000000   0.10000000   0.10000000
   0.10000000   0.10000000   0.10000000   0.10000000   0.10000000
   0.10000000   0.10000000   0.10000000   0.10000000   0.10000000
   0.10000000   0.10000000   0.10000000   0.10000000   0.10000000
   0.10000000   0.10000000   0.10000000   0.10000000   0.10000000
   0.10000000   0.10000000   0.10000000   0.10000000   0.10000000
   0.10000000   0.10000000   0.10000000   0.10000000   0.10000000
   0.10000000   0.10000000   0.10000000   0.10000000   0.10000000
   0.10000000   0.10000000   0.10000000   0.10000000   0.10000000
   0.10000000   0.10000000   0.10000000   0.10000000   0.10000000
   0.20000000   0.20000000   0.20000000   0.20000000   0.20000000
   0.20000000   0.20000000   0.20000000   0.20000000   0.20000000
   0.20000000   0.20000000   0.20000000   0.20000000   0.20000000
   0.20000000   0.20000000   0.20000000   0.20000000   0.20000000
   0.20000000   0.20000000   0.20000000   0.20000000   0.20000000
   0.20000000   0.20000000   0.20000000   0.20000000   0.20000000
   0.20000000   0.20000000   0.20000000   0.20000000   0.20000000
   0.20000000   0.20000000   0.20000000   0.20000000   0.20000000
   0.20000000   0.20000000   0.20000000   0.20000000   0.20000000
   0.20000000   0.20000000   0.20000000   0.20000000   0.20000000
   0.20000000   0.20000000   0.20000000   0.20000000   0.20000000
   0.20000000   0.20000000   0.20000000   0.20000000   0.20000000
   0.20000000   0.20000000   0.20000000   0.20000000   0.20000000
   0.20000000   0.20000000   0.20000000   0.20000000   0.20000000
   0.20000000   0.20000000   0.20000000   0.20000000   0.20000000
   0.20000000   0.20000000   0.20000000   0.20000000   0.20000000
   0.20000000   0.20000000   0.20000000   0.20000000   0.20000000
   0.20000000   0.20000000   0.20000000   0.20000000   0.20000000
   0.20000000   0.20000000   0.20000000   0.20000000   0.20000000
   0.20000000   0.20000000   0.20000000   0.20000000   0.20000000
   0.20000000   0.20000000   0.20000000   0.20000000   0.20000000
   0.20000000   0.20000000   0.20000000   0.20000000   0.20000000
   0.20000000   0.20000000   0.20000000   0.20000000   0.20000000
   0.20000000   0.20000000   0.20000000   0.20000000   0.20000000
   0.50000000   0.50000000   0.50000000   0.50000000   0.50000000
   0.50000000   0.50000000   0.50000000   0.50000000   0.50000000
   0.50000000   0.50000000   0.50000000   0.50000000   0.50000000
   0.50000000   0.50000000   0.50000000   0.50000000   0.50000000
   0.50000000   0.50000000   0.50000000   0.50000000   0.50000000
   0.50000000   0.50000000   0.50000000   0.50000000   0.50000000
   0.50000000   0.50000000   0.50000000   0.50000000   0.50000000
   0.50000000   0.50000000   0.50000000   0.50000000   0.50000000
   0.50000000   0.50000000   0.50000000   0.50000000   0.50000000
   0.50000000   0.50000000   0.50000000   0.50000000   0.50000000
   0.50000000   0.50000000   0.50000000   0.50000000   0.50000000
   0.50000000   0.50000000   0.50000000   0.50000000   0.50000000
   0.50000000   0.50000000   0.50000000   0.50000000   0.50000000
   0.50000000   0.50000000   0.50000000   0.50000000   0.50000000
   0.50000000   0.50000000   0.50000000   0.50000000

 Minimum Search taking a RFO step
 Searching for Lambda that minimizes along all modes
 Value of Lambda  -0.00006871
 Norm of Stepsize  0.02410126

	Performing Iterative Coordinate Back-Transformation

	  Starting from Previous Position
	  iter:	0	rms: 0.00700792	maxdev: 0.02045754
	  iter:	1	rms: 0.00002251	maxdev: 0.00011732
	  iter:	2	rms: 0.00000000	maxdev: 0.00000001	 Success!

	Finished Iterative Coordinate Back-Transformation
 ----------------------------------------------------------------
             Standard Nuclear Orientation (Angstroms)
    I     Atom           X                Y                Z
 ----------------------------------------------------------------
    1      S       0.4859207590     1.8732165643     2.1378311215
    2      C      -1.0585242215     2.1867148429     2.9676751536
    3      C      -1.2912247797     1.4424838065     4.1237766331
    4      H      -0.5687384718     0.7039940916     4.4601329619
    5      C      -2.4660865042     1.6689650068     4.8332772430
    6      H      -2.6656412679     1.1019377479     5.7372579420
    7      C      -3.3845467997     2.6127233713     4.3780261046
    8      H      -4.3053136031     2.7787826481     4.9292660399
    9      C      -3.1374635487     3.3398281674     3.2140418199
   10      H      -3.8587029664     4.0713567455     2.8619588417
   11      C      -1.9655045027     3.1340301985     2.4948358849
   12      H      -1.7669705380     3.6897409328     1.5836810042
   13      C       1.6051592622     3.1351617728     2.7496013576
   14      C       2.9677181702     2.9542327818     2.4627206837
   15      H       3.3253703479     2.1467707011     1.8269821712
   16      C       3.7993536982     3.9179278059     2.9694430217
   17      C       3.4253339325     5.0050878241     3.7217266258
   18      H       4.1433401757     5.7256674519     4.1051561389
   19      C       2.0579905928     5.1498471247     3.9818735561
   20      H       1.7035485012     5.9954414927     4.5653443516
   21      C       1.1443305694     4.2155645427     3.4979353096
   22      H       0.0885596662     4.3258293189     3.7159934957
   23      C       0.1660514242     2.3302993226     0.4346359844
   24      C       0.8878255973     3.3381193982    -0.1941290794
   25      H       1.6262815447     3.9225458444     0.3435156636
   26      C       0.6460027422     3.5844145025    -1.5442332848
   27      H       1.2052418125     4.3669608391    -2.0484728859
   28      C      -0.3115725175     2.8459639001    -2.2317312925
   29      H      -0.4992208388     3.0431019754    -3.2823468010
   30      C      -1.0336284158     1.8490388248    -1.5762303208
   31      H      -1.7965903238     1.2924265818    -2.1089825521
   32      C      -0.7901680779     1.5684074646    -0.2372301852
   33      H      -1.3516831089     0.7891410575     0.2760039838
   34      S      -0.6396765363    -3.3899038415    -0.9629020492
   35      C       0.5696006193    -2.1214889231    -0.6518830679
   36      C       0.9969903025    -1.9671875192     0.6666941277
   37      H       0.5679932733    -2.5812114539     1.4536283332
   38      C       1.9936388434    -1.0380113663     0.9494544528
   39      H       2.3502541684    -0.9263380528     1.9692005515
   40      C       2.5340933476    -0.2637670597    -0.0751199793
   41      H       3.3351554418     0.4340905283     0.1533768171
   42      C       2.0856078267    -0.4128349959    -1.3871914367
   43      H       2.5157360146     0.1862145271    -2.1849916197
   44      C       1.1038816784    -1.3526268256    -1.6867846339
   45      H       0.7581919405    -1.4928115099    -2.7065402097
   46      C      -1.6640431004    -2.7600891461    -2.4545980009
   47      C      -1.9066475183    -3.6122552846    -3.4829412448
   48      C      -2.7560324481    -3.0458661790    -4.4611722714
   49      H      -3.0246376687    -3.6210816590    -5.3513187065
   50      C      -3.2869471869    -1.7602107258    -4.3474926739
   51      H      -3.9427377714    -1.3671575776    -5.1241495741
   52      C      -2.9842183311    -0.9630536047    -3.2379084399
   53      H      -3.3931932575     0.0412854919    -3.1541102942
   54      C      -2.1511786804    -1.4699781329    -2.2452814546
   55      H      -1.8527050586    -0.8642349077    -1.3887690679
   56      C       0.2993041614    -4.7329235711    -1.6391714489
   57      C      -0.4333331494    -5.8886914524    -1.9149840579
   58      H      -1.4947782078    -5.9312033212    -1.6987797466
   59      C       0.2259865657    -6.9846094040    -2.4646278073
   60      H      -0.3306258739    -7.8924006453    -2.6787133280
   61      C       1.5914567469    -6.9214603203    -2.7285591702
   62      H       2.1005723432    -7.7840285382    -3.1498182574
   63      C       2.3075411894    -5.7588354243    -2.4497631554
   64      H       3.3739346108    -5.7106942098    -2.6485767151
   65      C       1.6637847451    -4.6514230464    -1.9047603167
   66      H       2.2220746604    -3.7469055001    -1.6887812463
 ----------------------------------------------------------------
 Nuclear Repulsion Energy =        4241.11852358 hartrees
 There are      138 alpha and      137 beta electrons
 Discretize the solute cavity surface with Lebedev spheres
	Using 194 Lebedev grid points for each H atom
	Using 194 Lebedev grid points for other atoms
	Atomic van der Waals radii will be scaled by 1.10
 Remove points where switching function is < 1.0e-08
 Keep 4907 surface tesserae and discard 7897 interior tesserae
 Molecular Surface Area = 607.291 Angst**2
 Applying Cartesian multipole field
    Component          Value
    ---------          -----
     (2,0,0)        1.00000E-11
     (0,2,0)        2.00000E-12
     (0,0,2)       -3.00000E-12
 Nucleus-field energy     =     0.0000000403 hartrees
 Requested basis set is def2-SVPD
 There are 422 shells and 998 basis functions
 A cutoff of  1.0D-16 yielded  68809 shell pairs
 There are    381939 function pairs (    442706 Cartesian)
 Smallest overlap matrix eigenvalue = 3.86E-06
 Guess MOs from SCF MO coefficient file

 -----------------------------------------------------------------------
  General SCF calculation program by
  Eric Jon Sundstrom, Paul Horn, Yuezhi Mao, Dmitri Zuev, Alec White,
  David Stuck, Shaama M.S., Shane Yost, Joonho Lee, David Small,
  Daniel Levine, Susi Lehtola, Hugh Burton, Evgeny Epifanovsky,
  Bang C. Huynh
 -----------------------------------------------------------------------
 Exchange:  B97M-V      Correlation:  B97M-V
 Using SG-3 standard quadrature grid
 Nonlocal Correlation:  VV10 with C = 0.0100 and b = 6.00 and scale = 1.00000
 Grid used for NLC:  SG-1 standard quadrature
 -------------------------------------------------------
 OpenMP BLAS3 based DFT computing Module                
 Release: version 1.0, May 2013, Q-Chem Inc. Pittsburgh 
 -------------------------------------------------------
 A unrestricted SCF calculation will be
 performed using Roothaan-Hall, GDM, GDM with quadratic line-search
 ---------------------------------------
  Cycle       Energy         DIIS error
 ---------------------------------------
    1   -2183.2146942618      1.06e-04  Roothaan Step
 ---------------------------------------
  Cycle       Energy        RMS Gradient
 ---------------------------------------
    1   -2182.4909636414      4.45e-01   Descent step
    2   -2182.8332626182      7.93e-02   Descent step
    3   -2182.9272409900      8.82e-02   Descent step
    4   -2182.8876947591      1.89e-01  Line search: overstep
    5   -2182.9503512684      5.35e-02   Normal BFGS step
    6   -2182.9677859077      6.71e-02   Normal BFGS step
    7   -2182.9817590819      7.13e-02   Normal BFGS step
    8   -2182.9971236259      1.11e-01   Normal BFGS step
    9   -2183.0407087147      1.74e-01   Descent step
   10   -2183.0570782962      3.55e-01   Descent step
   11   -2183.1353416685      5.26e-01   Descent step
   12   -2183.1670149437      2.94e-01   Descent step
   13   -2183.1739024218      3.00e-01   Descent step
   14   -2183.1856718819      2.68e-01   Descent step
   15   -2183.1579262880      2.89e-01  Line search: overstep
   16   -2183.2380173310      1.42e-01   Dog-leg BFGS step
   17   -2183.2330585682      8.98e-02  Line search: overstep
[...]
  58      -0.000008       0.000030       0.000045
  59      -0.000169       0.000067       0.000038
  60       0.000098      -0.000026      -0.000019
  61       0.000191       0.000120       0.000053
  62      -0.000068      -0.000030       0.000007
  63      -0.000073      -0.000122      -0.000045
  64      -0.000014       0.000009      -0.000036
  65       0.000114      -0.000011      -0.000380
  66      -0.000087       0.000043       0.000126
---------------------------------------------------
 Number of fixed atoms: 0
 Gradient time:  CPU 1927.39 s  wall 204.17 s

     Step 8	:	Energy -2183.2687496103
                            Maximum         Tolerance       Converged?
         Gradient           7.04497042e-04	3.00000000e-04	false
         Displacement       8.49495199e-02	1.20000000e-03	false
         Energy change      1.00029632e-04	1.00000000e-06	false


	OPTIMIZATION CYCLE:	9

 All Eigenvalues from Projected Hessian
   0.00134461   0.02598928   0.09388924   0.10000000   0.10000000
   0.10000000   0.10000000   0.10000000   0.10000000   0.10000000
   0.10000000   0.10000000   0.10000000   0.10000000   0.10000000
   0.10000000   0.10000000   0.10000000   0.10000000   0.10000000
   0.10000000   0.10000000   0.10000000   0.10000000   0.10000000
   0.10000000   0.10000000   0.10000000   0.10000000   0.10000000
   0.10000000   0.10000000   0.10000000   0.10000000   0.10000000
   0.10000000   0.10000000   0.10000000   0.10000000   0.10000000
   0.10000000   0.10000000   0.10000000   0.10000000   0.10000000
   0.10000000   0.10000000   0.10000000   0.10000000   0.10000000
   0.10000000   0.10000000   0.10000000   0.10000000   0.10000000
   0.10000000   0.10000000   0.10000000   0.10000000   0.10000000
   0.10000000   0.10000000   0.10000000   0.10000000   0.10000000
   0.10000000   0.10000000   0.10000000   0.10000000   0.10000000
   0.10000000   0.10000000   0.10000000   0.10000000   0.10000000
   0.10000000   0.10000000   0.10000000   0.10000000   0.10000000
   0.10000000   0.10000000   0.10000000   0.10000000   0.10000000
   0.10000000   0.10000000   0.10000000   0.10000000   0.10000000
   0.10000000   0.10000000   0.10000000   0.10000000   0.10000000
   0.10000000   0.10000000   0.10000000   0.10000000   0.10000000
   0.10000000   0.10000000   0.10000000   0.10000000   0.10000000
   0.10000000   0.10000000   0.10000000   0.10000000   0.10000000
   0.10000000   0.10000000   0.10000000   0.10000000   0.10000000
   0.10000000   0.10000000   0.10000000   0.10000000   0.10000000
   0.10000000   0.10000000   0.10000000   0.10000000   0.10000000
   0.10000000   0.10000000   0.10000000   0.10000000   0.10000000
   0.10000000   0.10000000   0.10000000   0.10000000   0.10000000
   0.10000000   0.10000000   0.10000000   0.10000000   0.10000000
   0.10000000   0.10000000   0.10000000   0.10000000   0.10000000
   0.10000000   0.10000000   0.10000000   0.10000000   0.10000000
   0.10000000   0.10000000   0.10000000   0.10000000   0.10000000
   0.10000000   0.10000000   0.10000000   0.10000000   0.10000000
   0.10000000   0.10000000   0.10000000   0.10000000   0.10000000
   0.10000000   0.10000000   0.10000000   0.10000000   0.10000000
   0.10000000   0.10000000   0.10000000   0.10000000   0.10000000
   0.10000000   0.10000000   0.10000000   0.10000000   0.10003713
   0.10004262   0.10092794   0.10226731   0.10922487   0.11232070
   0.18682069   0.19349351   0.19743130   0.20000000   0.20000000
   0.20000000   0.20000000   0.20000000   0.20000000   0.20000000
   0.20000000   0.20000000   0.20000000   0.20000000   0.20000000
   0.20000000   0.20000000   0.20000000   0.20000000   0.20000000
   0.20000000   0.20000000   0.20000000   0.20000000   0.20000000
   0.20000000   0.20000000   0.20000000   0.20000000   0.20000000
   0.20000000   0.20000000   0.20000000   0.20000000   0.20000000
   0.20000000   0.20000000   0.20000000   0.20000000   0.20000000
   0.20000000   0.20000000   0.20000000   0.20000000   0.20000000
   0.20000000   0.20000000   0.20000000   0.20000000   0.20000000
   0.20000000   0.20000000   0.20000000   0.20000000   0.20000000
   0.20000000   0.20000000   0.20000000   0.20000000   0.20000000
   0.20000000   0.20000000   0.20000000   0.20000000   0.20000000
   0.20000000   0.20000000   0.20000000   0.20000000   0.20000000
   0.20000000   0.20000000   0.20000000   0.20000000   0.20000000
   0.20000000   0.20000000   0.20000000   0.20000000   0.20000000
   0.20000000   0.20000000   0.20000000   0.20000000   0.20000000
   0.20000000   0.20000000   0.20000000   0.20000000   0.20000000
   0.20000000   0.20000000   0.20000000   0.20000000   0.20000000
   0.20000000   0.20000000   0.20000000   0.20000000   0.20000000
   0.20000000   0.20000000   0.20000000   0.20000000   0.20000000
   0.20000000   0.20000000   0.20000000   0.20000000   0.20000000
   0.20000000   0.20000000   0.20000000   0.20000000   0.20007277
   0.20024274   0.20129896   0.20521759   0.21903216   0.23630690
   0.48260981   0.49194972   0.49687959   0.50000000   0.50000000
   0.50000000   0.50000000   0.50000000   0.50000000   0.50000000
   0.50000000   0.50000000   0.50000000   0.50000000   0.50000000
   0.50000000   0.50000000   0.50000000   0.50000000   0.50000000
   0.50000000   0.50000000   0.50000000   0.50000000   0.50000000
   0.50000000   0.50000000   0.50000000   0.50000000   0.50000000
   0.50000000   0.50000000   0.50000000   0.50000000   0.50000000
   0.50000000   0.50000000   0.50000000   0.50000000   0.50000000
   0.50000000   0.50000000   0.50000000   0.50000000   0.50000000
   0.50000000   0.50000000   0.50000000   0.50000000   0.50000000
   0.50000000   0.50000000   0.50000000   0.50000000   0.50000000
   0.50000000   0.50000000   0.50000000   0.50000000   0.50000000
   0.50000000   0.50000000   0.50000000   0.50000000   0.50000000
   0.50000000   0.50000000   0.50000000   0.50006391   0.50027014
   0.50277103   0.50324028   0.50876689   0.51630291

 Scaling Magnitute of eigenvalues
 Minimum: -25.00000000
 Maximum: 25.00000000
 379 Hessian Eigenvalues to form next step
   0.00134461   0.02598928   0.09388924   0.10000000   0.10000000
   0.10000000   0.10000000   0.10000000   0.10000000   0.10000000
   0.10000000   0.10000000   0.10000000   0.10000000   0.10000000
   0.10000000   0.10000000   0.10000000   0.10000000   0.10000000
   0.10000000   0.10000000   0.10000000   0.10000000   0.10000000
   0.10000000   0.10000000   0.10000000   0.10000000   0.10000000
   0.10000000   0.10000000   0.10000000   0.10000000   0.10000000
   0.10000000   0.10000000   0.10000000   0.10000000   0.10000000
   0.10000000   0.10000000   0.10000000   0.10000000   0.10000000
   0.10000000   0.10000000   0.10000000   0.10000000   0.10000000
   0.10000000   0.10000000   0.10000000   0.10000000   0.10000000
   0.10000000   0.10000000   0.10000000   0.10000000   0.10000000
   0.10000000   0.10000000   0.10000000   0.10000000   0.10000000
   0.10000000   0.10000000   0.10000000   0.10000000   0.10000000
   0.10000000   0.10000000   0.10000000   0.10000000   0.10000000
   0.10000000   0.10000000   0.10000000   0.10000000   0.10000000
   0.10000000   0.10000000   0.10000000   0.10000000   0.10000000
   0.10000000   0.10000000   0.10000000   0.10000000   0.10000000
   0.10000000   0.10000000   0.10000000   0.10000000   0.10000000
   0.10000000   0.10000000   0.10000000   0.10000000   0.10000000
   0.10000000   0.10000000   0.10000000   0.10000000   0.10000000
   0.10000000   0.10000000   0.10000000   0.10000000   0.10000000
   0.10000000   0.10000000   0.10000000   0.10000000   0.10000000
   0.10000000   0.10000000   0.10000000   0.10000000   0.10000000
   0.10000000   0.10000000   0.10000000   0.10000000   0.10000000
   0.10000000   0.10000000   0.10000000   0.10000000   0.10000000
   0.10000000   0.10000000   0.10000000   0.10000000   0.10000000
   0.10000000   0.10000000   0.10000000   0.10000000   0.10000000
   0.10000000   0.10000000   0.10000000   0.10000000   0.10000000
   0.10000000   0.10000000   0.10000000   0.10000000   0.10000000
   0.10000000   0.10000000   0.10000000   0.10000000   0.10000000
   0.10000000   0.10000000   0.10000000   0.10000000   0.10000000
   0.10000000   0.10000000   0.10000000   0.10000000   0.10000000
   0.10000000   0.10000000   0.10000000   0.10000000   0.10000000
   0.10000000   0.10000000   0.10000000   0.10000000   0.10000000
   0.10000000   0.10000000   0.10000000   0.10000000   0.10003713
   0.10004262   0.10092794   0.10226731   0.10922487   0.11232070
   0.18682069   0.19349351   0.19743130   0.20000000   0.20000000
   0.20000000   0.20000000   0.20000000   0.20000000   0.20000000
   0.20000000   0.20000000   0.20000000   0.20000000   0.20000000
   0.20000000   0.20000000   0.20000000   0.20000000   0.20000000
   0.20000000   0.20000000   0.20000000   0.20000000   0.20000000
   0.20000000   0.20000000   0.20000000   0.20000000   0.20000000
   0.20000000   0.20000000   0.20000000   0.20000000   0.20000000
   0.20000000   0.20000000   0.20000000   0.20000000   0.20000000
   0.20000000   0.20000000   0.20000000   0.20000000   0.20000000
   0.20000000   0.20000000   0.20000000   0.20000000   0.20000000
   0.20000000   0.20000000   0.20000000   0.20000000   0.20000000
   0.20000000   0.20000000   0.20000000   0.20000000   0.20000000
   0.20000000   0.20000000   0.20000000   0.20000000   0.20000000
   0.20000000   0.20000000   0.20000000   0.20000000   0.20000000
   0.20000000   0.20000000   0.20000000   0.20000000   0.20000000
   0.20000000   0.20000000   0.20000000   0.20000000   0.20000000
   0.20000000   0.20000000   0.20000000   0.20000000   0.20000000
   0.20000000   0.20000000   0.20000000   0.20000000   0.20000000
   0.20000000   0.20000000   0.20000000   0.20000000   0.20000000
   0.20000000   0.20000000   0.20000000   0.20000000   0.20000000
   0.20000000   0.20000000   0.20000000   0.20000000   0.20000000
   0.20000000   0.20000000   0.20000000   0.20000000   0.20000000
   0.20000000   0.20000000   0.20000000   0.20000000   0.20007277
   0.20024274   0.20129896   0.20521759   0.21903216   0.23630690
   0.48260981   0.49194972   0.49687959   0.50000000   0.50000000
   0.50000000   0.50000000   0.50000000   0.50000000   0.50000000
   0.50000000   0.50000000   0.50000000   0.50000000   0.50000000
   0.50000000   0.50000000   0.50000000   0.50000000   0.50000000
   0.50000000   0.50000000   0.50000000   0.50000000   0.50000000
   0.50000000   0.50000000   0.50000000   0.50000000   0.50000000
   0.50000000   0.50000000   0.50000000   0.50000000   0.50000000
   0.50000000   0.50000000   0.50000000   0.50000000   0.50000000
   0.50000000   0.50000000   0.50000000   0.50000000   0.50000000
   0.50000000   0.50000000   0.50000000   0.50000000   0.50000000
   0.50000000   0.50000000   0.50000000   0.50000000   0.50000000
   0.50000000   0.50000000   0.50000000   0.50000000   0.50000000
   0.50000000   0.50000000   0.50000000   0.50000000   0.50000000
   0.50000000   0.50000000   0.50000000   0.50006391   0.50027014
   0.50277103   0.50324028   0.50876689   0.51630291

 Minimum Search taking a RFO step
 Searching for Lambda that minimizes along all modes
 Value of Lambda  -0.00012330
 Norm of Stepsize  0.19489658

	Performing Iterative Coordinate Back-Transformation

	  Starting from Previous Position
	  iter:	0	rms: 0.04564188	maxdev: 0.15205839
	  iter:	1	rms: 0.00164970	maxdev: 0.00587285
	  iter:	2	rms: 0.00001417	maxdev: 0.00005492
	  iter:	3	rms: 0.00000031	maxdev: 0.00000116	 Success!

	Finished Iterative Coordinate Back-Transformation
 ----------------------------------------------------------------
             Standard Nuclear Orientation (Angstroms)
    I     Atom           X                Y                Z
 ----------------------------------------------------------------
    1      S       0.3988592884     1.8436742456     2.1932152170
    2      C      -1.1448723442     2.2566813782     2.9766860033
    3      C      -1.5303860871     1.4450917756     4.0425738261
    4      H      -0.9135370123     0.6051579233     4.3484229927
    5      C      -2.7222024777     1.7355463392     4.6996121671
    6      H      -3.0412493932     1.1160495012     5.5322163943
    7      C      -3.5036807441     2.8100952255     4.2822464235
    8      H      -4.4383847459     3.0258078640     4.7912082763
    9      C      -3.1032026183     3.6063986031     3.2087276316
   10      H      -3.7174658093     4.4424068325     2.8879119150
   11      C      -1.9148914360     3.3351428414     2.5414606076
   12      H      -1.5979482295     3.9432755434     1.6992582884
   13      C       1.5802315194     3.0477075432     2.8064200396
   14      C       2.9128497048     2.8850418583     2.3946876049
   15      H       3.2094923177     2.1258151264     1.6742846804
   16      C       3.7982426188     3.7856948140     2.9243716223
   17      C       3.5066873602     4.7867487004     3.8199465398
   18      H       4.2655789093     5.4594215086     4.2113397404
   19      C       2.1703104080     4.9055983889     4.2146865111
   20      H       1.8790796653     5.6772149199     4.9224717404
   21      C       1.2032571739     4.0367275320     3.7102457465
   22      H       0.1707771978     4.1348049530     4.0242257518
   23      C       0.1244746158     2.2842184855     0.4743187939
   24      C       0.8682746284     3.2645681501    -0.1704519738
   25      H       1.6224103704     3.8407628944     0.3539136185
   26      C       0.6253958557     3.4940210366    -1.5239149668
   27      H       1.2007301269     4.2551534055    -2.0428077568
   28      C      -0.3506210163     2.7663356226    -2.1973203999
   29      H      -0.5358123914     2.9507917156    -3.2507135840
   30      C      -1.0960422623     1.7984619658    -1.5241821608
   31      H      -1.8567955467     1.2326446774    -2.0524915144
   32      C      -0.8559642537     1.5396546254    -0.1800710757
   33      H      -1.4306479065     0.7857877382     0.3543808591
   34      S      -0.5581377657    -3.3535429134    -0.9319543597
   35      C       0.6477115694    -2.0545769669    -0.7428215465
   36      C       1.1603098532    -1.8431400827     0.5367670519
   37      H       0.8140883987    -2.4482124046     1.3701881315
   38      C       2.1344282330    -0.8661045389     0.7226228378
   39      H       2.5532029073    -0.7105807855     1.7131603859
   40      C       2.5677211153    -0.1005682501    -0.3582991933
   41      H       3.3471919434     0.6430126364    -0.2150127510
   42      C       2.0301912157    -0.3052975701    -1.6286796658
   43      H       2.3698841362     0.2918344981    -2.4703104876
   44      C       1.0710010550    -1.2925260761    -1.8320441037
   45      H       0.6581754844    -1.4725334894    -2.8200090487
   46      C      -1.6429110986    -2.7951063563    -2.4081266482
   47      C      -1.8385435573    -3.6413360989    -3.4511578460
   48      C      -2.7032058714    -3.0895103912    -4.4265080522
   49      H      -2.9454919213    -3.6609722321    -5.3266206209
   50      C      -3.2752618712    -1.8220130573    -4.3041745981
   51      H      -3.9305603233    -1.4388094435    -5.0861527709
   52      C      -3.0161591001    -1.0312277283    -3.1783140611
   53      H      -3.4501202271    -0.0374579799    -3.0859566248
   54      C      -2.1859658099    -1.5312479134    -2.1816516250
   55      H      -1.9247255292    -0.9432859015    -1.3022948524
   56      C       0.3662636074    -4.7158513444    -1.5870151890
   57      C      -0.3571184979    -5.8963044876    -1.7618975472
   58      H      -1.4043468065    -5.9457710021    -1.4832407541
   59      C       0.2894628419    -7.0058348439    -2.2977242252
   60      H      -0.2599967442    -7.9325301629    -2.4351127047
   61      C       1.6343170015    -6.9300663784    -2.6506555734
   62      H       2.1348006294    -7.8027100295    -3.0613014068
   63      C       2.3396170826    -5.7406441754    -2.4787112829
   64      H       3.3892209942    -5.6816308081    -2.7508349005
   65      C       1.7071356685    -4.6197099066    -1.9483191120
   66      H       2.2563659007    -3.6942165504    -1.8127154144
 ----------------------------------------------------------------
 Nuclear Repulsion Energy =        4245.96850031 hartrees
 There are      138 alpha and      137 beta electrons
 Discretize the solute cavity surface with Lebedev spheres
	Using 194 Lebedev grid points for each H atom
	Using 194 Lebedev grid points for other atoms
	Atomic van der Waals radii will be scaled by 1.10
 Remove points where switching function is < 1.0e-08
 Keep 4901 surface tesserae and discard 7903 interior tesserae
 Molecular Surface Area = 603.031 Angst**2
 Applying Cartesian multipole field
    Component          Value
    ---------          -----
     (2,0,0)        1.00000E-11
     (0,2,0)        2.00000E-12
     (0,0,2)       -3.00000E-12
 Nucleus-field energy     =     0.0000000411 hartrees
 Requested basis set is def2-SVPD
 There are 422 shells and 998 basis functions
 A cutoff of  1.0D-16 yielded  68893 shell pairs
 There are    382379 function pairs (    443241 Cartesian)
 Smallest overlap matrix eigenvalue = 3.79E-06
 Guess MOs from SCF MO coefficient file

 -----------------------------------------------------------------------
  General SCF calculation program by
  Eric Jon Sundstrom, Paul Horn, Yuezhi Mao, Dmitri Zuev, Alec White,
  David Stuck, Shaama M.S., Shane Yost, Joonho Lee, David Small,
  Daniel Levine, Susi Lehtola, Hugh Burton, Evgeny Epifanovsky,
  Bang C. Huynh
 -----------------------------------------------------------------------
 Exchange:  B97M-V      Correlation:  B97M-V
 Using SG-3 standard quadrature grid
 Nonlocal Correlation:  VV10 with C = 0.0100 and b = 6.00 and scale = 1.00000
 Grid used for NLC:  SG-1 standard quadrature
 -------------------------------------------------------
 OpenMP BLAS3 based DFT computing Module                
 Release: version 1.0, May 2013, Q-Chem Inc. Pittsburgh 
 -------------------------------------------------------
 A unrestricted SCF calculation will be
 performed using Roothaan-Hall, GDM, GDM with quadratic line-search
 ---------------------------------------
  Cycle       Energy         DIIS error
 ---------------------------------------
    1   -2183.1789512088      7.67e-04  Roothaan Step
 ---------------------------------------
  Cycle       Energy        RMS Gradient
 ---------------------------------------
    1   -2182.4954003192      4.62e-01   Descent step
    2   -2182.8350488639      7.73e-02   Descent step
    3   -2182.9283204875      8.38e-02   Descent step
    4   -2182.8858493967      2.09e-01  Line search: overstep
    5   -2182.9509624729      5.65e-02   Normal BFGS step
    6   -2182.9715161302      8.33e-02   Normal BFGS step
    7   -2182.9875025453      4.83e-02   Normal BFGS step
    8   -2183.0080222807      9.37e-02   Descent step
    9   -2182.9565945573      2.01e-01  Line search: overstep
   10   -2183.0241069632      1.16e-01   Dog-leg BFGS step
   11   -2183.0682752486      2.55e-01   Descent step
   12   -2183.1685973880      4.61e-01   Descent step
   13   -2183.1847672316      2.56e-01   Descent step
   14   -2183.1943671356      5.03e-01   Descent step
   15   -2183.1895792660      1.92e-01  Line search: overstep
   16   -2183.2559735829      2.92e-02   Normal BFGS step
   17   -2183.2475739982      1.29e-01  Line search: overstep
   18   -2183.2608023488      3.03e-02   Dog-leg BFGS step
   19   -2183.2337694453      9.41e-02  Line search: overstep
   20   -2183.2649154348      3.25e-02   Normal BFGS step
   21   -2183.2567884787      7.51e-02  Line search: overstep
   22   -2183.2668425691      3.65e-02   Normal BFGS step
   23   -2183.2677247332      2.18e-02   Normal BFGS step
   24   -2183.2680887057      1.27e-02   Normal BFGS step
   25   -2183.2685349157      8.69e-03   Normal BFGS step
   26   -2183.2686219744      7.06e-03   Normal BFGS step
