Process 0 of 12 is on nid01046 - thread support 0
Process 3 of 12 is on nid01046 - thread support 0
Process 11 of 12 is on nid01046 - thread support 0
Process 4 of 12 is on nid01046 - thread support 0
Process 5 of 12 is on nid01046 - thread support 0
Process 1 of 12 is on nid01046 - thread support 0
Process 2 of 12 is on nid01046 - thread support 0
Process 6 of 12 is on nid01046 - thread support 0
initial socket setup ...start
initial socket setup ...done 
now start server 0 ... 
nid01046 10.128.4
Q-Chem Developer Version! Running on 10.128.4.*
                  Welcome to Q-Chem
     A Quantum Leap Into The Future Of Chemistry


 Q-Chem 5.0 (beta), Q-Chem, Inc., Pleasanton, CA (2017)

 Yihan Shao,  Zhengting Gan,  E. Epifanovsky,  A. T. B. Gilbert,  M. Wormit,  
 J. Kussmann,  A. W. Lange,  A. Behn,  Jia Deng,  Xintian Feng,  D. Ghosh,  
 M. Goldey,  P. R. Horn,  L. D. Jacobson,  I. Kaliman,  R. Z. Khaliullin,  
 T. Kus,  A. Landau,  Jie Liu,  E. I. Proynov,  Y. M. Rhee,  R. M. Richard,  
 M. A. Rohrdanz,  R. P. Steele,  E. J. Sundstrom,  H. L. Woodcock III,  
 P. M. Zimmerman,  D. Zuev,  B. Albrecht,  E. Alguire,  B. Austin,  
 S. A. Baeppler,  Z. Benda,  G. J. O. Beran,  Y. A. Bernard,  E. J. Berquist,  
 K. Brandhorst,  K. B. Bravaya,  S. T. Brown,  D. Casanova,  Chun-Min Chang,  
 Yunqing Chen,  Siu Hung Chien,  K. D. Closser,  M. P. Coons,  
 D. L. Crittenden,  S. Dasgupta,  M. Diedenhofen,  R. A. DiStasio Jr.,  
 Hainam Do,  A. D. Dutoi,  R. G. Edgar,  Po-Tung Fang,  S. Fatehi,  
 Qingguo Feng,  L. Fusti-Molnar,  Qinghui Ge,  A. Ghysels,  
 A. Golubeva-Zadorozhnaya,  J. Gomes,  J. Gonthier,  A. Gunina,  
 M. W. D. Hanson-Heine,  P. H. P. Harbach,  A. W. Hauser,  J. E. Herr,  
 E. G. Hohenstein,  Z. C. Holden,  Kerwin Hui,  T.-C. Jagau,  Hyunjun Ji,  
 B. Kaduk,  K. Khistyaev,  Jaehoon Kim,  Jihan Kim,  R. A. King,  
 P. Klunzinger,  K. Koh,  D. Kosenkov,  T. Kowalczyk,  C. M. Krauter,  
 A. Kunitsa,  Ka Un Lao,  A. Laurent,  K. V. Lawler,  Joonho Lee,  
 D. Lefrancois,  S. Lehtola,  S. V. Levchenko,  D. S. Levine,  Yi-Pei Li,  
 Ching Yeh Lin,  You-Sheng Lin,  Fenglai Liu,  E. Livshits,  R. C. Lochan,  
 A. Luenser,  P. Manohar,  E. Mansoor,  S. F. Manzer,  Shan-Ping Mao,  
 Yuezhi Mao,  N. Mardirossian,  A. V. Marenich,  L. A. Martinez-Martinez,  
 S. A. Maurer,  N. J. Mayhall,  J.-M. Mewes,  A. F. Morrison,  K. Nanda,  
 T. S. Nguyen-Beck,  C. M. Oana,  R. Olivares-Amaya,  D. P. O'Neill,  
 J. A. Parkhill,  T. M. Perrine,  R. Peverati,  P. A. Pieniazek,  F. Plasser,  
 S. Prager,  A. Prociuk,  D. R. Rehn,  F. Rob,  E. Rosta,  N. J. Russ,  
 N. Sergueev,  S. M. Sharada,  S. Sharma,  D. W. Small,  A. Sodt,  T. Stauch,  
 T. Stein,  D. Stuck,  Yu-Chuan Su,  A. J. W. Thom,  T. Tsuchimochi,  
 V. Vanovschi,  L. Vogt,  O. Vydrov,  Tao Wang,  M. A. Watson,  J. Wenzel,  
 T. A. Wesolowski,  A. White,  C. F. Williams,  J. Witte,  Jun Yang,  K. Yao,  
 S. Yeganeh,  S. R. Yost,  Zhi-Qiang You,  A. Zech,  Igor Ying Zhang,  
 Xing Zhang,  Yan Zhao,  Ying Zhu,  B. R. Brooks,  G. K. L. Chan,  
 D. M. Chipman,  C. J. Cramer,  W. A. Goddard III,  M. S. Gordon,  
 W. J. Hehre,  A. Klamt,  H. F. Schaefer III,  M. W. Schmidt,  
 C. D. Sherrill,  D. G. Truhlar,  A. Warshel,  X. Xu,  A. Aspuru-Guzik,  
 R. Baer,  A. T. Bell,  N. A. Besley,  J.-D. Chai,  A. Dreuw,  B. D. Dunietz,  
 T. R. Furlani,  S. R. Gwaltney,  C.-P. Hsu,  Y. Jung,  J. Kong,  
 D. S. Lambrecht,  W. Liang,  C. Ochsenfeld,  V. A. Rassolov,  
 L. V. Slipchenko,  J. E. Subotnik,  T. Van Voorhis,  J. M. Herbert,  
 A. I. Krylov,  P. M. W. Gill,  M. Head-Gordon

 Contributors to earlier versions of Q-Chem not listed above: 
 R. D. Adamson,  J. Baker,  E. F. C. Byrd,  A. K. Chakraborty,  C.-L. Cheng,  
 H. Dachsel,  R. J. Doerksen,  G. Hawkins,  A. Heyden,  S. Hirata,  
 G. Kedziora,  F. J. Keil,  C. Kelley,  P. P. Korambath,  W. Kurlancheek,  
 A. M. Lee,  M. S. Lee,  D. Liotard,  I. Lotan,  P. E. Maslen,  N. Nair,  
 D. Neuhauser,  R. Olson,  B. Peters,  J. Ritchie,  N. E. Schultz,  
 N. Shenvi,  A. C. Simmonett,  K. S. Thanthiriwatte,  Q. Wu,  W. Zhang

 Please cite Q-Chem as follows:
 Y. Shao et al., Mol. Phys. 113, 184-215 (2015)
 DOI: 10.1080/00268976.2014.952696

 Q-Chem 4.4.2 for Intel X86 EM64T Linux

 Parts of Q-Chem use Armadillo 5.200.1 (Boston Tea Smuggler).
 http://arma.sourceforge.net/

 Q-Chem begins on Mon Jan 29 23:22:40 2018  

Host: nid01046
0

     Scratch files written to /dev/shm/eg_qchem/qchem39107.0//
 Parallel job on  12  processors

Checking the input file for inconsistencies... 	...done.
[HyperChem begin]
[HyperChem end]
[HyperChem begin]
[HyperChem end]
[HyperChem begin]
[HyperChem end]
[HyperChem begin]
[HyperChem end]
[HyperChem begin]
[HyperChem end]
[HyperChem begin]
[HyperChem end]
[HyperChem begin]
[HyperChem end]
[HyperChem begin]
[HyperChem end]

--------------------------------------------------------------
User input:
--------------------------------------------------------------
$molecule
0 2
  O   -0.9770000    2.5730000    0.3830000
  C    0.0550000    2.5690000   -0.4660000
  C   -1.6840000    3.7850000    0.2520000
  O    0.9390000    1.7050000   -0.5060000
  O   -0.0180000    3.6330000   -1.2760000
  C   -1.1490000    4.3150000   -1.0430000
  C   -1.6360000    5.2050000   -1.9200000
 Li    2.3790000    0.3140000   -0.6630000
  H   -1.4510000    4.4460000    1.0880000
  H   -2.7640000    3.6280000    0.2340000
  H   -1.1070000    5.4340000   -2.8340000
  H   -2.5680000    5.7230000   -1.7410000
$end

$rem
   BASIS  =  6-311++G**
   SYM_IGNORE = true
   GUI  =  1
   METHOD  =  B3LYP
   JOB_TYPE  =  Frequency
   gen_scfman = True     
$end

--------------------------------------------------------------
 ----------------------------------------------------------------
             Standard Nuclear Orientation (Angstroms)
    I     Atom           X                Y                Z
 ----------------------------------------------------------------
    1      O      -0.9770000000     2.5730000000     0.3830000000
    2      C       0.0550000000     2.5690000000    -0.4660000000
    3      C      -1.6840000000     3.7850000000     0.2520000000
    4      O       0.9390000000     1.7050000000    -0.5060000000
    5      O      -0.0180000000     3.6330000000    -1.2760000000
    6      C      -1.1490000000     4.3150000000    -1.0430000000
    7      C      -1.6360000000     5.2050000000    -1.9200000000
    8      Li      2.3790000000     0.3140000000    -0.6630000000
    9      H      -1.4510000000     4.4460000000     1.0880000000
   10      H      -2.7640000000     3.6280000000     0.2340000000
   11      H      -1.1070000000     5.4340000000    -2.8340000000
   12      H      -2.5680000000     5.7230000000    -1.7410000000
 ----------------------------------------------------------------
 Nuclear Repulsion Energy =   321.9310651250 hartrees
 There are       28 alpha and       27 beta electrons
[HyperChem begin]
[HyperChem end]
[HyperChem begin]
;Nuclear Cartesian coordinates in Angstroms
[coordinates]
     -0.977000000000      2.573000000000      0.383000000000
      0.055000000000      2.569000000000     -0.466000000000
     -1.684000000000      3.785000000000      0.252000000000
      0.939000000000      1.705000000000     -0.506000000000
     -0.018000000000      3.633000000000     -1.276000000000
     -1.149000000000      4.315000000000     -1.043000000000
     -1.636000000000      5.205000000000     -1.920000000000
      2.379000000000      0.314000000000     -0.663000000000
     -1.451000000000      4.446000000000      1.088000000000
     -2.764000000000      3.628000000000      0.234000000000
     -1.107000000000      5.434000000000     -2.834000000000
     -2.568000000000      5.723000000000     -1.741000000000
[HyperChem end]
[HyperChem begin]
[HyperChem end]
 Requested basis set is 6-311++G(d,p)
[HyperChem begin]
[basis]
;
1:
;
Shells = 6
Shell1 =[ S   6   1.00 ]
   1    8.588500E+03    1.895150E-03
   2    1.297230E+03    1.438590E-02
   3    2.992960E+02    7.073200E-02
   4    8.737710E+01    2.400010E-01
   5    2.567890E+01    5.947970E-01
   6    3.740040E+00    2.808020E-01
Shell2 =[ SP  3   1.00 ]
   1    4.211750E+01    1.138890E-01    3.651140E-02
   2    9.628370E+00    9.208110E-01    2.371530E-01
   3    2.853320E+00   -3.274470E-03    8.197020E-01
Shell3 =[ SP  1   1.00 ]
   1    9.056610E-01    1.000000E+00    1.000000E+00
Shell4 =[ SP  1   1.00 ]
   1    2.556110E-01    1.000000E+00    1.000000E+00
Shell5 =[ SP  1   1.00 ]
   1    8.450000E-02    1.000000E+00    1.000000E+00
Shell6 =[ D   1   1.00 ]
   1    1.292000E+00    1.000000E+00
;
2:
;
Shells = 6
Shell1 =[ S   6   1.00 ]
   1    4.563240E+03    1.966650E-03
   2    6.820240E+02    1.523060E-02
   3    1.549730E+02    7.612690E-02
   4    4.445530E+01    2.608010E-01
   5    1.302900E+01    6.164620E-01
   6    1.827730E+00    2.210060E-01
Shell2 =[ SP  3   1.00 ]
   1    2.096420E+01    1.146600E-01    4.024870E-02
   2    4.803310E+00    9.199990E-01    2.375940E-01
   3    1.459330E+00   -3.030680E-03    8.158540E-01
Shell3 =[ SP  1   1.00 ]
   1    4.834560E-01    1.000000E+00    1.000000E+00
Shell4 =[ SP  1   1.00 ]
   1    1.455850E-01    1.000000E+00    1.000000E+00
Shell5 =[ SP  1   1.00 ]
   1    4.380000E-02    1.000000E+00    1.000000E+00
Shell6 =[ D   1   1.00 ]
   1    6.260000E-01    1.000000E+00
;
3:
;
Shells = 6
Shell1 =[ S   6   1.00 ]
   1    4.563240E+03    1.966650E-03
   2    6.820240E+02    1.523060E-02
   3    1.549730E+02    7.612690E-02
   4    4.445530E+01    2.608010E-01
   5    1.302900E+01    6.164620E-01
   6    1.827730E+00    2.210060E-01
Shell2 =[ SP  3   1.00 ]
   1    2.096420E+01    1.146600E-01    4.024870E-02
   2    4.803310E+00    9.199990E-01    2.375940E-01
   3    1.459330E+00   -3.030680E-03    8.158540E-01
Shell3 =[ SP  1   1.00 ]
   1    4.834560E-01    1.000000E+00    1.000000E+00
Shell4 =[ SP  1   1.00 ]
   1    1.455850E-01    1.000000E+00    1.000000E+00
Shell5 =[ SP  1   1.00 ]
   1    4.380000E-02    1.000000E+00    1.000000E+00
Shell6 =[ D   1   1.00 ]
   1    6.260000E-01    1.000000E+00
;
4:
;
Shells = 6
Shell1 =[ S   6   1.00 ]
   1    8.588500E+03    1.895150E-03
   2    1.297230E+03    1.438590E-02
   3    2.992960E+02    7.073200E-02
   4    8.737710E+01    2.400010E-01
   5    2.567890E+01    5.947970E-01
   6    3.740040E+00    2.808020E-01
Shell2 =[ SP  3   1.00 ]
   1    4.211750E+01    1.138890E-01    3.651140E-02
   2    9.628370E+00    9.208110E-01    2.371530E-01
   3    2.853320E+00   -3.274470E-03    8.197020E-01
Shell3 =[ SP  1   1.00 ]
   1    9.056610E-01    1.000000E+00    1.000000E+00
Shell4 =[ SP  1   1.00 ]
   1    2.556110E-01    1.000000E+00    1.000000E+00
Shell5 =[ SP  1   1.00 ]
   1    8.450000E-02    1.000000E+00    1.000000E+00
Shell6 =[ D   1   1.00 ]
   1    1.292000E+00    1.000000E+00
;
5:
;
Shells = 6
Shell1 =[ S   6   1.00 ]
   1    8.588500E+03    1.895150E-03
   2    1.297230E+03    1.438590E-02
   3    2.992960E+02    7.073200E-02
   4    8.737710E+01    2.400010E-01
   5    2.567890E+01    5.947970E-01
   6    3.740040E+00    2.808020E-01
Shell2 =[ SP  3   1.00 ]
   1    4.211750E+01    1.138890E-01    3.651140E-02
   2    9.628370E+00    9.208110E-01    2.371530E-01
   3    2.853320E+00   -3.274470E-03    8.197020E-01
Shell3 =[ SP  1   1.00 ]
   1    9.056610E-01    1.000000E+00    1.000000E+00
Shell4 =[ SP  1   1.00 ]
   1    2.556110E-01    1.000000E+00    1.000000E+00
Shell5 =[ SP  1   1.00 ]
   1    8.450000E-02    1.000000E+00    1.000000E+00
Shell6 =[ D   1   1.00 ]
   1    1.292000E+00    1.000000E+00
;
6:
;
Shells = 6
Shell1 =[ S   6   1.00 ]
   1    4.563240E+03    1.966650E-03
   2    6.820240E+02    1.523060E-02
   3    1.549730E+02    7.612690E-02
   4    4.445530E+01    2.608010E-01
   5    1.302900E+01    6.164620E-01
   6    1.827730E+00    2.210060E-01
Shell2 =[ SP  3   1.00 ]
   1    2.096420E+01    1.146600E-01    4.024870E-02
   2    4.803310E+00    9.199990E-01    2.375940E-01
   3    1.459330E+00   -3.030680E-03    8.158540E-01
Shell3 =[ SP  1   1.00 ]
   1    4.834560E-01    1.000000E+00    1.000000E+00
Shell4 =[ SP  1   1.00 ]
   1    1.455850E-01    1.000000E+00    1.000000E+00
Shell5 =[ SP  1   1.00 ]
   1    4.380000E-02    1.000000E+00    1.000000E+00
Shell6 =[ D   1   1.00 ]
   1    6.260000E-01    1.000000E+00
;
7:
;
Shells = 6
Shell1 =[ S   6   1.00 ]
   1    4.563240E+03    1.966650E-03
   2    6.820240E+02    1.523060E-02
   3    1.549730E+02    7.612690E-02
   4    4.445530E+01    2.608010E-01
   5    1.302900E+01    6.164620E-01
   6    1.827730E+00    2.210060E-01
Shell2 =[ SP  3   1.00 ]
   1    2.096420E+01    1.146600E-01    4.024870E-02
   2    4.803310E+00    9.199990E-01    2.375940E-01
   3    1.459330E+00   -3.030680E-03    8.158540E-01
Shell3 =[ SP  1   1.00 ]
   1    4.834560E-01    1.000000E+00    1.000000E+00
Shell4 =[ SP  1   1.00 ]
   1    1.455850E-01    1.000000E+00    1.000000E+00
Shell5 =[ SP  1   1.00 ]
   1    4.380000E-02    1.000000E+00    1.000000E+00
Shell6 =[ D   1   1.00 ]
   1    6.260000E-01    1.000000E+00
;
8:
;
Shells = 6
Shell1 =[ S   6   1.00 ]
   1    9.004600E+02    2.287040E-03
   2    1.344330E+02    1.763500E-02
   3    3.043650E+01    8.734340E-02
   4    8.626390E+00    2.809770E-01
   5    2.483320E+00    6.587410E-01
   6    3.031790E-01    1.187120E-01
Shell2 =[ SP  3   1.00 ]
   1    4.868900E+00    9.332930E-02    3.276610E-02
   2    8.569240E-01    9.430450E-01    1.597920E-01
   3    2.432270E-01   -2.798270E-03    8.856670E-01
Shell3 =[ SP  1   1.00 ]
   1    6.350700E-02    1.000000E+00    1.000000E+00
Shell4 =[ SP  1   1.00 ]
   1    2.436830E-02    1.000000E+00    1.000000E+00
Shell5 =[ SP  1   1.00 ]
   1    7.400000E-03    1.000000E+00    1.000000E+00
Shell6 =[ D   1   1.00 ]
   1    2.000000E-01    1.000000E+00
;
9:
;
Shells = 5
Shell1 =[ S   3   1.00 ]
   1    3.386500E+01    2.549380E-02
   2    5.094790E+00    1.903730E-01
   3    1.158790E+00    8.521610E-01
Shell2 =[ S   1   1.00 ]
   1    3.258400E-01    1.000000E+00
Shell3 =[ S   1   1.00 ]
   1    1.027410E-01    1.000000E+00
Shell4 =[ S   1   1.00 ]
   1    3.600000E-02    1.000000E+00
Shell5 =[ P   1   1.00 ]
   1    7.500000E-01    1.000000E+00
;
10:
;
Shells = 5
Shell1 =[ S   3   1.00 ]
   1    3.386500E+01    2.549380E-02
   2    5.094790E+00    1.903730E-01
   3    1.158790E+00    8.521610E-01
Shell2 =[ S   1   1.00 ]
   1    3.258400E-01    1.000000E+00
Shell3 =[ S   1   1.00 ]
   1    1.027410E-01    1.000000E+00
Shell4 =[ S   1   1.00 ]
   1    3.600000E-02    1.000000E+00
Shell5 =[ P   1   1.00 ]
   1    7.500000E-01    1.000000E+00
;
11:
;
Shells = 5
Shell1 =[ S   3   1.00 ]
   1    3.386500E+01    2.549380E-02
   2    5.094790E+00    1.903730E-01
   3    1.158790E+00    8.521610E-01
Shell2 =[ S   1   1.00 ]
   1    3.258400E-01    1.000000E+00
Shell3 =[ S   1   1.00 ]
   1    1.027410E-01    1.000000E+00
Shell4 =[ S   1   1.00 ]
   1    3.600000E-02    1.000000E+00
Shell5 =[ P   1   1.00 ]
   1    7.500000E-01    1.000000E+00
;
12:
;
Shells = 5
Shell1 =[ S   3   1.00 ]
   1    3.386500E+01    2.549380E-02
   2    5.094790E+00    1.903730E-01
   3    1.158790E+00    8.521610E-01
Shell2 =[ S   1   1.00 ]
   1    3.258400E-01    1.000000E+00
Shell3 =[ S   1   1.00 ]
   1    1.027410E-01    1.000000E+00
Shell4 =[ S   1   1.00 ]
   1    3.600000E-02    1.000000E+00
Shell5 =[ P   1   1.00 ]
   1    7.500000E-01    1.000000E+00
[HyperChem end]
 There are 68 shells and 204 basis functions

 Total QAlloc Memory Limit   2000 MB
 Mega-Array Size        61 MB
 MEM_STATIC part        62 MB

                       Distance Matrix (Angstroms)
             O (  1)   C (  2)   C (  3)   O (  4)   O (  5)   C (  6)
   C (  2)  1.336354
   C (  3)  1.409239  2.240156
   O (  4)  2.283594  1.236751  3.432360
   O (  5)  2.189877  1.339226  2.265710  2.286030
   C (  6)  2.257792  2.197967  1.498049  3.385294  1.341109
   C (  7)  3.558864  3.452838  2.595436  4.569466  2.346027  1.341044
   Li(  8)  4.178508  3.244196  5.421534  2.008265  4.139703  5.347821
   H (  9)  2.056655  2.864626  1.090920  3.970644  2.881485  2.156276
   H ( 10)  2.080528  3.091641  1.091500  4.237657  3.133790  2.170466
   H ( 11)  4.307123  3.894341  3.546199  4.848829  2.618566  2.112251
   H ( 12)  4.118878  4.295750  2.917079  5.474358  3.329688  2.117364
             C (  7)   Li(  8)   H (  9)   H ( 10)   H ( 11)
   Li(  8)  6.451523
   H (  9)  3.107792  5.899858
   H ( 10)  2.898108  6.183660  1.767034
   H ( 11)  1.080592  6.563523  4.059133  3.926819
   H ( 12)  1.081198  7.408925  3.298736  2.885839  1.847347
 
 A cutoff of  1.0D-11 yielded   2180 shell pairs
 There are     20158 function pairs (     21776 Cartesian)
 Smallest overlap matrix eigenvalue = 1.29E-05
 Guess from superposition of atomic densities
 Warning:  Energy on first SCF cycle will be non-variational

 ==================================================
    GEN_SCFMAN: A general SCF calculation manager  
                                                   
    Authors:                                       
        -- Eric Jon Sundstrom 2008-2014            
        -- Paul Horn 2010-2015                     
        -- Yuezhi Mao 2012-                        
        -- Dmitri Zuev 2014                        
        -- Alec White 2015-                        
        -- David Stuck 2015                        
        -- Shaama M.S. 2015                        
        -- Shane Yost 2015-                         
        -- Joonho Lee 2016-                        
        -- David Small 2016-                       
        -- Daniel Levine 2016-                     
 ==================================================
 Exchange:     0.2000 Hartree-Fock + 0.0800 Slater + 0.7200 B88
 Correlation:  0.1900 VWN1RPA + 0.8100 LYP
 Using SG-1 standard quadrature grid
 A unrestricted SCF calculation will be
 performed using DIIS
 ---------------------------------------
  Cycle       Energy         DIIS error
 ---------------------------------------
 -------------------------------------------------------
 OpenMP Integral computing Module                
 -------------------------------------------------------
    1    -389.6710791712      2.25e-02  
    2    -387.7640216659      3.78e-03  
    3    -386.3684856853      7.31e-03  
    4    -387.9404542685      1.96e-03  
    5    -388.0622918871      1.26e-03  
    6    -388.0925727102      5.36e-04  
    7    -388.0965482417      3.38e-04  
    8    -388.0995146202      1.63e-04  
    9    -388.1002410904      4.50e-05  
   10    -388.1002853473      1.75e-05  
   11    -388.1002933118      7.21e-06  
   12    -388.1002988977      3.31e-06  
   13    -388.1003027441      2.38e-06  
   14    -388.1003044142      1.61e-06  
   15    -388.1003074825      1.33e-06  
   16    -388.1003087418      8.94e-07  
   17    -388.1003091080      3.62e-07  
   18    -388.1003092381      1.28e-07  
   19    -388.1003092504      7.94e-08  
   20    -388.1003092548      3.53e-08  
   21    -388.1003092550      6.96e-09  Convergence criterion met
 ---------------------------------------
 SCF time:   CPU 13.50s  wall 13.00s 
<S^2> =          0.750032894
Wall 1 = 13
Clock 1 = 13.504159927
 ==================================================
                  Done GEN_SCFMAN                  
 ==================================================

 
 --------------------------------------------------------------
 
                    Orbital Energies (a.u.)
 --------------------------------------------------------------
 
 Alpha MOs
 -- Occupied --
-19.250 -19.240 -19.176 -10.418 -10.297 -10.296 -10.213  -1.985
 -1.246  -1.130  -1.093  -0.856  -0.774  -0.703  -0.669  -0.590
 -0.582  -0.534  -0.521  -0.498  -0.475  -0.449  -0.444  -0.419
 -0.370  -0.364  -0.296  -0.089
 -- Virtual --
 -0.063  -0.034  -0.032  -0.011  -0.009  -0.007   0.003   0.011
  0.012   0.018   0.022   0.024   0.026   0.036   0.042   0.059
  0.075   0.079   0.089   0.095   0.097   0.100   0.104   0.107
  0.109   0.116   0.121   0.123   0.124   0.135   0.137   0.152
  0.159   0.173   0.186   0.195   0.197   0.227   0.229   0.243
  0.254   0.275   0.277   0.289   0.295   0.298   0.300   0.308
  0.324   0.336   0.350   0.361   0.371   0.384   0.393   0.431
  0.451   0.466   0.470   0.472   0.482   0.488   0.489   0.532
  0.538   0.543   0.556   0.573   0.586   0.635   0.641   0.661
  0.669   0.689   0.719   0.726   0.748   0.787   0.793   0.812
  0.850   0.886   0.933   0.975   0.977   1.021   1.040   1.061
  1.099   1.123   1.152   1.167   1.183   1.206   1.241   1.300
  1.310   1.358   1.390   1.417   1.439   1.458   1.494   1.550
  1.565   1.587   1.599   1.656   1.662   1.668   1.702   1.727
  1.782   1.819   1.844   1.866   1.900   1.935   1.968   2.084
  2.103   2.176   2.228   2.307   2.439   2.463   2.478   2.527
  2.555   2.566   2.672   2.689   2.753   2.787   2.796   2.825
  2.839   2.863   2.914   3.024   3.044   3.047   3.075   3.083
  3.156   3.208   3.212   3.304   3.459   3.490   3.538   3.620
  3.718   3.731   3.804   3.976   4.046   4.080   4.161   4.251
  4.930   4.968   5.001   5.087   5.264   5.421   5.448   5.853
  5.909  23.665  23.732  23.806  24.168  49.798  49.871  49.961
 
 Beta MOs
 -- Occupied --
-19.250 -19.240 -19.175 -10.418 -10.297 -10.296 -10.213  -1.979
 -1.245  -1.129  -1.092  -0.856  -0.774  -0.703  -0.669  -0.590
 -0.581  -0.533  -0.520  -0.497  -0.475  -0.449  -0.443  -0.419
 -0.370  -0.363  -0.296
 -- Virtual --
 -0.062  -0.037  -0.031  -0.022  -0.006  -0.001   0.001   0.011
  0.015   0.018   0.022   0.029   0.034   0.034   0.036   0.050
  0.059   0.077   0.081   0.092   0.098   0.102   0.102   0.111
  0.117   0.119   0.121   0.123   0.123   0.128   0.137   0.144
  0.153   0.165   0.173   0.185   0.195   0.198   0.228   0.233
  0.243   0.253   0.273   0.277   0.291   0.294   0.302   0.304
  0.308   0.327   0.335   0.354   0.365   0.373   0.385   0.396
  0.432   0.456   0.469   0.479   0.484   0.488   0.498   0.504
  0.534   0.543   0.550   0.563   0.574   0.593   0.640   0.646
  0.663   0.673   0.697   0.720   0.729   0.756   0.790   0.799
  0.814   0.850   0.888   0.934   0.975   0.978   1.021   1.040
  1.061   1.099   1.123   1.151   1.167   1.184   1.207   1.242
  1.300   1.310   1.358   1.390   1.419   1.440   1.459   1.494
  1.550   1.565   1.588   1.599   1.656   1.663   1.668   1.702
  1.727   1.782   1.819   1.845   1.866   1.900   1.935   1.968
  2.084   2.103   2.177   2.228   2.307   2.439   2.463   2.479
  2.528   2.555   2.566   2.672   2.689   2.753   2.787   2.797
  2.826   2.839   2.863   2.914   3.024   3.044   3.047   3.075
  3.083   3.156   3.208   3.212   3.304   3.460   3.491   3.539
  3.620   3.719   3.731   3.810   3.977   4.046   4.080   4.161
  4.251   4.930   4.968   5.002   5.088   5.265   5.421   5.448
  5.853   5.909  23.665  23.732  23.806  24.168  49.798  49.871
 49.961
 --------------------------------------------------------------
 
          Ground-State Mulliken Net Atomic Charges

     Atom                 Charge (a.u.)    Spin (a.u.)
  --------------------------------------------------------
      1 O                    -0.054922      -0.010753
      2 C                     0.402693      -0.004865
      3 C                    -0.468493      -0.014532
      4 O                    -0.283201      -0.061984
      5 O                    -0.017947      -0.010891
      6 C                     0.353181      -0.007088
      7 C                    -0.485998       0.017625
      8 Li                   -0.169824       1.084347
      9 H                     0.206797       0.007981
     10 H                     0.218098       0.001058
     11 H                     0.146020      -0.001126
     12 H                     0.153596       0.000229
  --------------------------------------------------------
  Sum of atomic charges =     0.000000
  Sum of spin   charges =     1.000000

 -----------------------------------------------------------------
                    Cartesian Multipole Moments
 -----------------------------------------------------------------
    Charge (ESU x 10^10)
                 0.0000
    Dipole Moment (Debye)
         X      -6.7504      Y       6.6950      Z       0.7103
       Tot       9.5339
    Quadrupole Moments (Debye-Ang)
        XX     -56.4389     XY     -10.9598     YY     -23.1482
        XZ       4.4044     YZ      -2.2851     ZZ     -49.1766
    Octopole Moments (Debye-Ang^2)
       XXX     -51.6536    XXY    -105.1127    XYY     -59.4057
       YYY    -297.3760    XXZ      44.5168    XYZ       4.7659
       YYZ      19.9872    XZZ      -4.3838    YZZ    -124.5888
       ZZZ      97.0770
    Hexadecapole Moments (Debye-Ang^3)
      XXXX    -959.1505   XXXY     332.8834   XXYY    -563.6427
      XYYY     106.0302   YYYY   -2805.4989   XXXZ      27.9820
      XXYZ     106.8920   XYYZ      39.5632   YYYZ     246.7166
      XXZZ    -227.4997   XYZZ     114.1982   YYZZ    -532.8713
      XZZZ       3.5636   YZZZ     308.8924   ZZZZ    -399.4278
 -----------------------------------------------------------------
[HyperChem begin]
;Total dipole moment in Debye
[dipole-moment]
      9.533888123949
;Dipole moment components in Debye
[dipole-moment-components]
     -6.750408724030      6.694954384616      0.710345413459
[HyperChem end]
[HyperChem begin]
[HyperChem end]
[HyperChem begin]
[HyperChem end]
[HyperChem begin]
[HyperChem end]
 Calculating MO derivatives via CPSCF
 CPSCF will be done in 12 segments to save memory.
   1         0           3      0.022977    0.009116
   2         0           3      0.005826    0.002041
   3         0           3      0.002553    0.001194
   4         0           3      0.001610    0.001031
   5         0           3      0.001026    0.000658
   6         0           3      0.000284    0.000176
   7         0           3      0.000063    0.000039
   8         0           3      0.000015    0.000009
   9         1           2      0.000004    0.000003
  10         2           1      0.000001    0.000001
  11         3           0      0.000000    0.000000    Roots Converged
 Time for AOints: 10.9 s (CPU) 10.9 s (wall)
 ------------------------------------------------------------------------------
                     AOints        : Timing summary (seconds)
 ------------------------------------------------------------------------------
     job step          cpu (% of tot)      sys (% of tot)     wall (% of tot)
 ------------------------------------------------------------------------------
  cpscf_lag         0.1752E+03 (36.1)   0.1360E-03 ( 9.9)   0.1752E+03 (36.1)
  iterzp            0.2995E+03 (61.7)   0.1241E-02 (90.1)   0.2995E+03 (61.7)
  make_fx           0.0000E+00 ( 0.0)   0.0000E+00 ( 0.0)   0.0000E+00 ( 0.0)
  AOints            0.1087E+02 ( 2.2)   0.1000E-05 ( 0.1)   0.1087E+02 ( 2.2)
 ------------------------------------------------------------------------------
   Grand Totals     0.4856E+03          0.1378E-02          0.4856E+03
 ------------------------------------------------------------------------------
 Calculating analytic Hessian of the SCF energy
 Polarizability Matrix (a.u.)
            1           2           3
    1-446.3484436 142.1666481 -46.9317305
    2 142.1666481-370.5633667  32.2834680
    3 -46.9317305  32.2834680-274.8767055

 Q-Chem warning in module /project/projectdirs/jcesr/qchem/qc5.x/qc500/compile/cori/qc_src/drvman/find_multipole_der.C, line 180:

 Net Molecular Charges From Derivative of Dipole Moment are Inconsistent

 Derivative of Dipole Moment Matrix (a.u.)
            1           2           3
    1  -2.2923135   1.2786701  -0.0270612
    2  -0.2502327  -0.2218985  -0.0904772
    3   0.1988229   0.0307271  -0.5300996
    4   2.7686804  -1.6740820  -0.0710474
    5   2.5824691  -0.6140961   0.4151305
    6   1.9824047  -1.8601491   1.5041619
    7   0.4818597  -0.1367072   0.0144942
    8  -0.6566300   0.7930328  -0.0228288
    9  -0.6078736   0.5966438   0.0793706
   10   0.9726243  -0.2663626   0.5226008
   11  -1.9729855   1.0086119  -0.5829944
   12  -0.6232030   0.5307373  -0.1891767
   13  -1.7200589   1.2674031  -0.4158060
   14   0.6214227  -1.1051685   0.4863633
   15  -0.5716500   0.6840067  -0.5743424
   16   0.8367579  -0.7999860   0.3405605
   17  -1.8602997   1.6543209  -0.6761777
   18   0.2337719  -0.4180255   0.3006615
   19  -0.5382050   0.2950172  -0.2434901
   20   1.0665846  -1.1838249   0.3031017
   21  -0.8354988   0.5831886  -0.3537839
   22  -0.7290255   0.0565895  -0.2034903
   23  -0.0077499  -0.3239664   0.0798017
   24  -0.1760566   0.0839603  -0.4677843
   25   0.2520037  -0.1842475  -0.0257130
   26   0.1550220  -0.1033586  -0.0091895
   27   0.3312797  -0.2821925   0.0071377
   28  -0.0941069   0.0548454   0.0052742
   29   0.1920729  -0.1051604   0.0524302
   30  -0.0255043   0.0059352   0.0826216
   31  -0.0652955   0.1218142   0.0390782
   32  -0.0604477   0.2033560  -0.0039179
   33  -0.0139955   0.0783546   0.0482347
   34   0.1270541  -0.0125497   0.0646129
   35   0.1910693  -0.0018292   0.0484394
   36   0.1075174  -0.0332284   0.0926272
 -----------------------------------------
 Net:   0.00028   0.00038  -0.00068
 -----------------------------------------

 
 Direct stationary perturbation theory relativistic correction:
 
 rels  =       0.126204088503
 relv  =      -0.581330402454
 rel2e =       0.244455940805
 E_rel =      -0.210670373146
 
 Hessian of the SCF Energy
            1           2           3           4           5           6
    1   0.3341926  -0.1280286  -0.1686842  -0.1601255   0.0148038   0.1191906
    2  -0.1280286   0.3700475  -0.0953098   0.0162973  -0.0904314   0.0210092
    3  -0.1686842  -0.0953098   0.2785838   0.0789259   0.0446599  -0.1546116
    4  -0.1601255   0.0162973   0.0789259   0.6519277  -0.3194707  -0.1336885
    5   0.0148038  -0.0904314   0.0446599  -0.3194707   0.5738485  -0.1386700
    6   0.1191906   0.0210092  -0.1546116  -0.1336885  -0.1386700   0.3751343
    7  -0.0990290   0.0465450   0.0093189  -0.0508472   0.0238287   0.0201769
    8   0.0692307  -0.1926700   0.0135372   0.0447827   0.0024988  -0.0299904
    9  -0.0093608   0.0314143  -0.0784011   0.0066379  -0.0097073   0.0104466
   10  -0.0424034   0.0525318   0.0270442  -0.3311938   0.1713770  -0.0087416
   11   0.0108245  -0.0097354  -0.0190384   0.2325251  -0.2448201   0.0292656
   12   0.0273382  -0.0277582   0.0048909   0.0193289   0.0080886  -0.0907036
   13  -0.0108843  -0.0119295   0.0318335  -0.0896531   0.0302643   0.0327796
   14  -0.0303122  -0.0081059   0.0523615  -0.0112235  -0.1611783   0.0890068
   15   0.0380275   0.0359614  -0.0435753   0.0437255   0.0862092  -0.1482422
   16  -0.0137475   0.0083608   0.0046651  -0.0120674   0.0564202  -0.0506705
   17   0.0103322  -0.0467998   0.0262708   0.0403769  -0.0360046   0.0418533
   18   0.0020702   0.0259021  -0.0182838  -0.0273000  -0.0000835   0.0122718
   19   0.0037954  -0.0063252   0.0002023  -0.0072026  -0.0012158   0.0174680
   20   0.0036616   0.0027249   0.0028388  -0.0014403  -0.0123612  -0.0159413
   21  -0.0054262   0.0031641  -0.0027257   0.0081788   0.0113029   0.0028558
   22  -0.0008838  -0.0039097  -0.0024552  -0.0049622   0.0219053   0.0088021
   23  -0.0015633   0.0035002   0.0023122   0.0053979  -0.0167309  -0.0048228
   24  -0.0011009  -0.0002709   0.0002110   0.0015203   0.0016466   0.0001281
   25   0.0022693   0.0196585   0.0172359   0.0023685  -0.0003645  -0.0024274
   26   0.0106746  -0.0298077  -0.0243036  -0.0081422  -0.0071887   0.0035337
   27   0.0041740   0.0039987   0.0121160   0.0006189  -0.0060568  -0.0038281
   28  -0.0130500   0.0054937   0.0028845   0.0010051   0.0019552  -0.0033824
   29   0.0401248   0.0014760  -0.0035135   0.0002216  -0.0080800   0.0052133
   30  -0.0058803   0.0015735   0.0023842   0.0023950   0.0009961  -0.0038880
   31  -0.0007133   0.0011503  -0.0009174   0.0009173   0.0018343   0.0001182
   32   0.0006042  -0.0004669  -0.0003193  -0.0007017   0.0003568   0.0009588
   33  -0.0010181   0.0009525  -0.0005720   0.0007731   0.0015972  -0.0011810
   34   0.0005936   0.0001498  -0.0000501  -0.0001702  -0.0013703   0.0003682
   35  -0.0003495   0.0002703   0.0005019   0.0013697   0.0000830  -0.0014098
   36   0.0006827  -0.0006396  -0.0000118  -0.0011166  -0.0000036   0.0016223
            7           8           9          10          11          12
    1  -0.0990290   0.0692307  -0.0093608  -0.0424034   0.0108245   0.0273382
    2   0.0465450  -0.1926700   0.0314143   0.0525318  -0.0097354  -0.0277582
    3   0.0093189   0.0135372  -0.0784011   0.0270442  -0.0190384   0.0048909
    4  -0.0508472   0.0447827   0.0066379  -0.3311938   0.2325251   0.0193289
    5   0.0238287   0.0024988  -0.0097073   0.1713770  -0.2448201   0.0080886
    6   0.0201769  -0.0299904   0.0104466  -0.0087416   0.0292656  -0.0907036
    7   0.6372988   0.0069953  -0.0265455   0.0023470   0.0017956   0.0024496
    8   0.0069953   0.4736992   0.0664349  -0.0054500  -0.0001421   0.0061207
    9  -0.0265455   0.0664349   0.5257109   0.0155153  -0.0107647  -0.0028192
   10   0.0023470  -0.0054500   0.0155153   0.3599623  -0.2637943  -0.0231678
   11   0.0017956  -0.0001421  -0.0107647  -0.2637943   0.3152290  -0.0151545
   12   0.0024496   0.0061207  -0.0028192  -0.0231678  -0.0151545   0.0821722
   13  -0.0369442   0.0033564   0.0247519   0.0050363   0.0351148  -0.0289598
   14   0.0200289  -0.0119032   0.0010184   0.0408915  -0.0625321   0.0291906
   15   0.0340754   0.0025582  -0.0147302  -0.0090683   0.0094518   0.0089071
   16  -0.0879086  -0.0292317   0.0479093   0.0052330  -0.0096953   0.0090826
   17  -0.0091497  -0.0819576   0.0169498   0.0127708  -0.0156466  -0.0040154
   18   0.0267119   0.0522449  -0.1743623  -0.0038189   0.0139005  -0.0012148
   19   0.0101090  -0.0046871   0.0012029   0.0029894  -0.0013251  -0.0038429
   20   0.0014371   0.0020112   0.0122263  -0.0093902   0.0123263   0.0044664
   21  -0.0084074   0.0119330  -0.0150514   0.0063605  -0.0105652  -0.0012304
   22  -0.0001824  -0.0002846  -0.0027512   0.0021180  -0.0078107  -0.0029827
   23   0.0003508  -0.0004888   0.0019418  -0.0002400   0.0023533   0.0007234
   24   0.0002675  -0.0004623  -0.0002425   0.0013256  -0.0029239  -0.0013661
   25  -0.0681083  -0.0419798  -0.0508946  -0.0037524   0.0029643   0.0005576
   26  -0.0385932  -0.1316605  -0.1131954   0.0018858   0.0009727  -0.0002581
   27  -0.0489195  -0.1230416  -0.2049723  -0.0046991   0.0054531   0.0010880
   28  -0.3063624  -0.0449864  -0.0074531  -0.0002563  -0.0003693   0.0004256
   29  -0.0568398  -0.0612024   0.0017548  -0.0000433   0.0017070  -0.0014777
   30  -0.0080785  -0.0011926  -0.0482385  -0.0007886   0.0004307   0.0006096
   31   0.0003962   0.0041534   0.0021857   0.0011381  -0.0016962  -0.0000989
   32   0.0045242   0.0041898   0.0043509   0.0010847  -0.0009954  -0.0001817
   33  -0.0003174   0.0036657   0.0040326   0.0005966  -0.0009855   0.0001774
   34  -0.0007701  -0.0018698  -0.0011972  -0.0012295   0.0014869  -0.0001177
   35  -0.0009264  -0.0023680  -0.0024215  -0.0016233   0.0012862   0.0002607
   36  -0.0007399  -0.0017856  -0.0013922  -0.0005649   0.0009397  -0.0005044
           13          14          15          16          17          18
    1  -0.0108843  -0.0303122   0.0380275  -0.0137475   0.0103322   0.0020702
    2  -0.0119295  -0.0081059   0.0359614   0.0083608  -0.0467998   0.0259021
    3   0.0318335   0.0523615  -0.0435753   0.0046651   0.0262708  -0.0182838
    4  -0.0896531  -0.0112235   0.0437255  -0.0120674   0.0403769  -0.0273000
    5   0.0302643  -0.1611783   0.0862092   0.0564202  -0.0360046  -0.0000835
    6   0.0327796   0.0890068  -0.1482422  -0.0506705   0.0418533   0.0122718
    7  -0.0369442   0.0200289   0.0340754  -0.0879086  -0.0091497   0.0267119
    8   0.0033564  -0.0119032   0.0025582  -0.0292317  -0.0819576   0.0522449
    9   0.0247519   0.0010184  -0.0147302   0.0479093   0.0169498  -0.1743623
   10   0.0050363   0.0408915  -0.0090683   0.0052330   0.0127708  -0.0038189
   11   0.0351148  -0.0625321   0.0094518  -0.0096953  -0.0156466   0.0139005
   12  -0.0289598   0.0291906   0.0089071   0.0090826  -0.0040154  -0.0012148
   13   0.4052074  -0.1797076  -0.1334089  -0.2476845   0.0909385   0.0738512
   14  -0.1797076   0.3743105  -0.1587815   0.1207122  -0.1178746  -0.0101110
   15  -0.1334089  -0.1587815   0.2836258   0.0605552   0.0040395  -0.0961690
   16  -0.2476845   0.1207122   0.0605552   0.4982301  -0.2521316  -0.0120895
   17   0.0909385  -0.1178746   0.0040395  -0.2521316   0.5347466  -0.2851776
   18   0.0738512  -0.0101110  -0.0961690  -0.0120895  -0.2851776   0.5850655
   19  -0.0280780   0.0487743  -0.0327503  -0.1411340   0.0975296  -0.0644959
   20   0.0325481  -0.0217219   0.0179181   0.1043866  -0.2445321   0.1882972
   21  -0.0065962  -0.0054104   0.0155204  -0.0725716   0.1905699  -0.2743961
   22  -0.0003824  -0.0053364  -0.0003697  -0.0010576  -0.0037465   0.0014886
   23  -0.0007402   0.0048521  -0.0004793   0.0015837   0.0018688  -0.0010536
   24  -0.0011340   0.0008136  -0.0003738   0.0004527  -0.0006268  -0.0000333
   25  -0.0002032  -0.0017250  -0.0004028   0.0046627   0.0088458   0.0095681
   26  -0.0003439   0.0022020  -0.0005225   0.0052668   0.0110871   0.0099363
   27   0.0018126   0.0004749  -0.0001632  -0.0075544  -0.0073767  -0.0260265
   28   0.0001165  -0.0019576   0.0001995  -0.0068047  -0.0023546   0.0026532
   29  -0.0007458   0.0015630   0.0009929  -0.0097691   0.0023442  -0.0053599
   30   0.0043255  -0.0006756  -0.0039435   0.0277336   0.0047675   0.0011863
   31  -0.0014377  -0.0040025  -0.0018471   0.0092076   0.0047655  -0.0119797
   32  -0.0040026  -0.0022705  -0.0045659  -0.0103628  -0.0002486   0.0194415
   33  -0.0009237  -0.0046784  -0.0003129   0.0117362   0.0047638  -0.0138443
   34   0.0049109   0.0038625   0.0012724  -0.0069238   0.0018132   0.0033417
   35   0.0052428   0.0026557   0.0072149   0.0144734  -0.0069821  -0.0079440
   36   0.0016712   0.0067882  -0.0005404  -0.0192322   0.0079772   0.0058091
           19          20          21          22          23          24
    1   0.0037954   0.0036616  -0.0054262  -0.0008838  -0.0015633  -0.0011009
    2  -0.0063252   0.0027249   0.0031641  -0.0039097   0.0035002  -0.0002709
    3   0.0002023   0.0028388  -0.0027257  -0.0024552   0.0023122   0.0002110
    4  -0.0072026  -0.0014403   0.0081788  -0.0049622   0.0053979   0.0015203
    5  -0.0012158  -0.0123612   0.0113029   0.0219053  -0.0167309   0.0016466
    6   0.0174680  -0.0159413   0.0028558   0.0088021  -0.0048228   0.0001281
    7   0.0101090   0.0014371  -0.0084074  -0.0001824   0.0003508   0.0002675
    8  -0.0046871   0.0020112   0.0119330  -0.0002846  -0.0004888  -0.0004623
    9   0.0012029   0.0122263  -0.0150514  -0.0027512   0.0019418  -0.0002425
   10   0.0029894  -0.0093902   0.0063605   0.0021180  -0.0002400   0.0013256
   11  -0.0013251   0.0123263  -0.0105652  -0.0078107   0.0023533  -0.0029239
   12  -0.0038429   0.0044664  -0.0012304  -0.0029827   0.0007234  -0.0013661
   13  -0.0280780   0.0325481  -0.0065962  -0.0003824  -0.0007402  -0.0011340
   14   0.0487743  -0.0217219  -0.0054104  -0.0053364   0.0048521   0.0008136
   15  -0.0327503   0.0179181   0.0155204  -0.0003697  -0.0004793  -0.0003738
   16  -0.1411340   0.1043866  -0.0725716  -0.0010576   0.0015837   0.0004527
   17   0.0975296  -0.2445321   0.1905699  -0.0037465   0.0018688  -0.0006268
   18  -0.0644959   0.1882972  -0.2743961   0.0014886  -0.0010536  -0.0000333
   19   0.5456086  -0.2417846  -0.0992884  -0.0008788   0.0003249  -0.0002910
   20  -0.2417846   0.4240346  -0.2514938   0.0030857  -0.0016526   0.0005501
   21  -0.0992884  -0.2514938   0.5896411  -0.0020549   0.0012072  -0.0003033
   22  -0.0008788   0.0030857  -0.0020549   0.0055667  -0.0045350  -0.0010089
   23   0.0003249  -0.0016526   0.0012072  -0.0045350   0.0064407   0.0010536
   24  -0.0002910   0.0005501  -0.0003033  -0.0010089   0.0010536   0.0018433
   25   0.0008831  -0.0009030   0.0008494   0.0007754  -0.0005609   0.0000394
   26  -0.0008058  -0.0008105   0.0011281   0.0000934   0.0001111   0.0001109
   27   0.0030518  -0.0022457   0.0018148   0.0012946  -0.0008210   0.0001464
   28   0.0005444   0.0014298  -0.0008644  -0.0000410  -0.0000373  -0.0000472
   29   0.0006249  -0.0006149   0.0015955   0.0004365  -0.0001744   0.0001055
   30  -0.0002547  -0.0012414   0.0004962   0.0000831  -0.0000547   0.0000027
   31  -0.1199936  -0.0226202   0.1304424  -0.0004108   0.0002272  -0.0000589
   32  -0.0199288  -0.0535461   0.0592188  -0.0003022   0.0001595  -0.0000570
   33   0.1269350   0.0612011  -0.2592712  -0.0002160   0.0001135  -0.0000256
   34  -0.2666541   0.1295862   0.0493610   0.0003429  -0.0002119   0.0000346
   35   0.1288187  -0.1058473  -0.0126441   0.0004050  -0.0002388   0.0000593
   36   0.0520567  -0.0165736  -0.0573475   0.0001689  -0.0001196   0.0000120
           25          26          27          28          29          30
    1   0.0022693   0.0106746   0.0041740  -0.0130500   0.0401248  -0.0058803
    2   0.0196585  -0.0298077   0.0039987   0.0054937   0.0014760   0.0015735
    3   0.0172359  -0.0243036   0.0121160   0.0028845  -0.0035135   0.0023842
    4   0.0023685  -0.0081422   0.0006189   0.0010051   0.0002216   0.0023950
    5  -0.0003645  -0.0071887  -0.0060568   0.0019552  -0.0080800   0.0009961
    6  -0.0024274   0.0035337  -0.0038281  -0.0033824   0.0052133  -0.0038880
    7  -0.0681083  -0.0385932  -0.0489195  -0.3063624  -0.0568398  -0.0080785
    8  -0.0419798  -0.1316605  -0.1230416  -0.0449864  -0.0612024  -0.0011926
    9  -0.0508946  -0.1131954  -0.2049723  -0.0074531   0.0017548  -0.0482385
   10  -0.0037524   0.0018858  -0.0046991  -0.0002563  -0.0000433  -0.0007886
   11   0.0029643   0.0009727   0.0054531  -0.0003693   0.0017070   0.0004307
   12   0.0005576  -0.0002581   0.0010880   0.0004256  -0.0014777   0.0006096
   13  -0.0002032  -0.0003439   0.0018126   0.0001165  -0.0007458   0.0043255
   14  -0.0017250   0.0022020   0.0004749  -0.0019576   0.0015630  -0.0006756
   15  -0.0004028  -0.0005225  -0.0001632   0.0001995   0.0009929  -0.0039435
   16   0.0046627   0.0052668  -0.0075544  -0.0068047  -0.0097691   0.0277336
   17   0.0088458   0.0110871  -0.0073767  -0.0023546   0.0023442   0.0047675
   18   0.0095681   0.0099363  -0.0260265   0.0026532  -0.0053599   0.0011863
   19   0.0008831  -0.0008058   0.0030518   0.0005444   0.0006249  -0.0002547
   20  -0.0009030  -0.0008105  -0.0022457   0.0014298  -0.0006149  -0.0012414
   21   0.0008494   0.0011281   0.0018148  -0.0008644   0.0015955   0.0004962
   22   0.0007754   0.0000934   0.0012946  -0.0000410   0.0004365   0.0000831
   23  -0.0005609   0.0001111  -0.0008210  -0.0000373  -0.0001744  -0.0000547
   24   0.0000394   0.0001109   0.0001464  -0.0000472   0.0001055   0.0000027
   25   0.0681616   0.0335930   0.0506566  -0.0069093  -0.0190498  -0.0250112
   26   0.0335930   0.1564575   0.1299485  -0.0035775  -0.0008561  -0.0061479
   27   0.0506566   0.1299485   0.2191704  -0.0005310  -0.0010564   0.0005581
   28  -0.0069093  -0.0035775  -0.0005310   0.3315258   0.0447165   0.0060075
   29  -0.0190498  -0.0008561  -0.0010564   0.0447165   0.0639547   0.0016120
   30  -0.0250112  -0.0061479   0.0005581   0.0060075   0.0016120   0.0508921
   31  -0.0002383  -0.0002450   0.0008926   0.0003983   0.0001657  -0.0004315
   32  -0.0005639  -0.0005738   0.0015530   0.0004249  -0.0000843  -0.0005952
   33  -0.0002154  -0.0003653   0.0006873   0.0003470  -0.0000884  -0.0002154
   34   0.0000889   0.0001933  -0.0007949  -0.0001658   0.0001593  -0.0001018
   35   0.0000836   0.0000603  -0.0008376  -0.0007392  -0.0000310   0.0005294
   36   0.0000426   0.0001304  -0.0005979  -0.0002434   0.0002215   0.0001572
           31          32          33          34          35          36
    1  -0.0007133   0.0006042  -0.0010181   0.0005936  -0.0003495   0.0006827
    2   0.0011503  -0.0004669   0.0009525   0.0001498   0.0002703  -0.0006396
    3  -0.0009174  -0.0003193  -0.0005720  -0.0000501   0.0005019  -0.0000118
    4   0.0009173  -0.0007017   0.0007731  -0.0001702   0.0013697  -0.0011166
    5   0.0018343   0.0003568   0.0015972  -0.0013703   0.0000830  -0.0000036
    6   0.0001182   0.0009588  -0.0011810   0.0003682  -0.0014098   0.0016223
    7   0.0003962   0.0045242  -0.0003174  -0.0007701  -0.0009264  -0.0007399
    8   0.0041534   0.0041898   0.0036657  -0.0018698  -0.0023680  -0.0017856
    9   0.0021857   0.0043509   0.0040326  -0.0011972  -0.0024215  -0.0013922
   10   0.0011381   0.0010847   0.0005966  -0.0012295  -0.0016233  -0.0005649
   11  -0.0016962  -0.0009954  -0.0009855   0.0014869   0.0012862   0.0009397
   12  -0.0000989  -0.0001817   0.0001774  -0.0001177   0.0002607  -0.0005044
   13  -0.0014377  -0.0040026  -0.0009237   0.0049109   0.0052428   0.0016712
   14  -0.0040025  -0.0022705  -0.0046784   0.0038625   0.0026557   0.0067882
   15  -0.0018471  -0.0045659  -0.0003129   0.0012724   0.0072149  -0.0005404
   16   0.0092076  -0.0103628   0.0117362  -0.0069238   0.0144734  -0.0192322
   17   0.0047655  -0.0002486   0.0047638   0.0018132  -0.0069821   0.0079772
   18  -0.0119797   0.0194415  -0.0138443   0.0033417  -0.0079440   0.0058091
   19  -0.1199936  -0.0199288   0.1269350  -0.2666541   0.1288187   0.0520567
   20  -0.0226202  -0.0535461   0.0612011   0.1295862  -0.1058473  -0.0165736
   21   0.1304424   0.0592188  -0.2592712   0.0493610  -0.0126441  -0.0573475
   22  -0.0004108  -0.0003022  -0.0002160   0.0003429   0.0004050   0.0001689
   23   0.0002272   0.0001595   0.0001135  -0.0002119  -0.0002388  -0.0001196
   24  -0.0000589  -0.0000570  -0.0000256   0.0000346   0.0000593   0.0000120
   25  -0.0002383  -0.0005639  -0.0002154   0.0000889   0.0000836   0.0000426
   26  -0.0002450  -0.0005738  -0.0003653   0.0001933   0.0000603   0.0001304
   27   0.0008926   0.0015530   0.0006873  -0.0007949  -0.0008376  -0.0005979
   28   0.0003983   0.0004249   0.0003470  -0.0001658  -0.0007392  -0.0002434
   29   0.0001657  -0.0000843  -0.0000884   0.0001593  -0.0000310   0.0002215
   30  -0.0004315  -0.0005952  -0.0002154  -0.0001018   0.0005294   0.0001572
   31   0.1179523   0.0224865  -0.1376974  -0.0072168  -0.0062178   0.0193908
   32   0.0224865   0.0480264  -0.0675777   0.0067383   0.0054496  -0.0122276
   33  -0.1376974  -0.0675777   0.2703579  -0.0000019   0.0013995   0.0001702
   34  -0.0072168   0.0067383  -0.0000019   0.2771965  -0.1405368  -0.0521154
   35  -0.0062178   0.0054496   0.0013995  -0.1405368   0.1056596   0.0152952
   36   0.0193908  -0.0122276   0.0001702  -0.0521154   0.0152952   0.0526227
 Gradient time:  CPU 520.44 s  wall 520.41 s
[HyperChem begin]
[HyperChem end]
 **********************************************************************
 **                                                                  **
 **                       VIBRATIONAL ANALYSIS                       **
 **                       --------------------                       **
 **                                                                  **
 **        VIBRATIONAL FREQUENCIES (CM**-1) AND NORMAL MODES         **
 **     FORCE CONSTANTS (mDYN/ANGSTROM) AND REDUCED MASSES (AMU)     **
 **                  INFRARED INTENSITIES (KM/MOL)                   **
 **                                                                  **
 **********************************************************************
 

 Symmetry:           ???                    ???                    ???

 Mode:                 1                      2                      3
 Frequency:       -60.90                  74.43                 102.82
 Force Cnst:      0.0162                 0.0240                 0.0237
 Red. Mass:       7.4371                 7.3535                 3.7972
 IR Active:          YES                    YES                    YES
 IR Intens:      252.280                 21.511                  1.970
 Raman Active:       YES                    YES                    YES
               X      Y      Z        X      Y      Z        X      Y      Z
 O         -0.023  0.017  0.001    0.103 -0.045 -0.087   -0.141 -0.086 -0.144
 C         -0.158 -0.142 -0.155    0.065  0.057 -0.131   -0.035 -0.012 -0.021
 C          0.069  0.078  0.072    0.032 -0.077  0.029    0.140  0.118  0.103
 O         -0.168 -0.112 -0.125    0.101  0.104 -0.199   -0.065 -0.037 -0.041
 O         -0.113 -0.121 -0.135   -0.004  0.127 -0.040    0.130  0.139  0.151
 C          0.043  0.075  0.051   -0.053  0.028  0.038    0.028  0.025  0.036
 C          0.060  0.120  0.103   -0.146  0.024  0.088   -0.096 -0.171 -0.091
 Li         0.618  0.200  0.408   -0.238 -0.449  0.654    0.062  0.044  0.011
 H          0.140  0.032  0.079    0.038 -0.117  0.058    0.531  0.001  0.088
 H          0.057  0.148  0.100    0.040 -0.131  0.064    0.097  0.408  0.335
 H          0.004  0.055  0.053   -0.186  0.103  0.085   -0.126 -0.223 -0.122
 H          0.145  0.243  0.195   -0.181 -0.056  0.132   -0.165 -0.271 -0.160
 TransDip  -0.451  0.153 -0.180   -0.011  0.088 -0.119   -0.036  0.020 -0.018

 Symmetry:           ???                    ???                    ???

 Mode:                 4                      5                      6
 Frequency:       151.54                 218.84                 352.24
 Force Cnst:      0.0727                 0.2002                 0.1956
 Red. Mass:       5.3743                 7.0933                 2.6763
 IR Active:          YES                    YES                    YES
 IR Intens:      328.392                 11.951                  5.617
 Raman Active:       YES                    YES                    YES
               X      Y      Z        X      Y      Z        X      Y      Z
 O         -0.081 -0.137 -0.137    0.179  0.071  0.147   -0.011 -0.048  0.041
 C          0.056  0.009  0.023    0.015 -0.013 -0.023   -0.034  0.014 -0.014
 C          0.138  0.015  0.059   -0.058 -0.084 -0.034   -0.026 -0.024  0.127
 O          0.121  0.024  0.072   -0.162 -0.186 -0.263    0.053  0.111 -0.107
 O         -0.084 -0.148 -0.144    0.119  0.084  0.125   -0.119 -0.004  0.041
 C          0.009 -0.037 -0.007    0.027 -0.028  0.019   -0.094  0.007  0.077
 C          0.032  0.072  0.073    0.042 -0.089 -0.049    0.188 -0.042 -0.132
 Li        -0.393  0.440  0.144   -0.316  0.518  0.182    0.001 -0.023 -0.012
 H          0.463 -0.077  0.053   -0.350 -0.001 -0.020    0.057 -0.047  0.120
 H          0.101  0.253  0.271   -0.021 -0.323 -0.206   -0.027 -0.022  0.221
 H         -0.058  0.003  0.004    0.128 -0.067  0.006    0.491 -0.408 -0.053
 H          0.133  0.208  0.204   -0.022 -0.164 -0.168    0.281  0.244 -0.496
 TransDip   0.503 -0.251  0.143   -0.095 -0.008 -0.056   -0.050  0.056 -0.009

 Symmetry:           ???                    ???                    ???

 Mode:                 7                      8                      9
 Frequency:       444.51                 548.87                 589.74
 Force Cnst:      0.3262                 1.0842                 1.0210
 Red. Mass:       2.8021                 6.1083                 4.9828
 IR Active:          YES                    YES                    YES
 IR Intens:      284.477                 11.761               2059.494
 Raman Active:       YES                    YES                    YES
               X      Y      Z        X      Y      Z        X      Y      Z
 O         -0.004  0.017 -0.042    0.202 -0.006 -0.144   -0.075 -0.017 -0.059
 C         -0.050 -0.029 -0.081    0.075  0.076 -0.155    0.288  0.191  0.289
 C         -0.037 -0.004  0.030    0.048 -0.158  0.114   -0.059  0.031  0.005
 O          0.009  0.057  0.044   -0.153 -0.184  0.296    0.030 -0.227 -0.125
 O          0.002 -0.041 -0.074   -0.035  0.179 -0.109   -0.090 -0.028 -0.004
 C          0.196  0.188  0.187   -0.165  0.073  0.059   -0.010  0.114  0.043
 C         -0.023 -0.137  0.000   -0.017  0.059 -0.068   -0.065  0.061 -0.077
 Li        -0.066  0.016 -0.026    0.006  0.008 -0.018    0.108 -0.048  0.027
 H         -0.444 -0.204  0.290    0.075 -0.215  0.153   -0.189 -0.091  0.156
 H         -0.017 -0.117 -0.432    0.070 -0.326  0.270   -0.056  0.015 -0.149
 H         -0.235 -0.462 -0.204    0.275 -0.210  0.027   -0.329 -0.401 -0.347
 H          0.027 -0.063  0.043    0.032  0.264 -0.421    0.144  0.394  0.058
 TransDip  -0.458  0.267 -0.106   -0.097  0.050 -0.010    1.207 -0.751  0.305

 Symmetry:           ???                    ???                    ???

 Mode:                10                     11                     12
 Frequency:       680.46                 722.33                 756.17
 Force Cnst:      1.6965                 0.4054                 2.2197
 Red. Mass:       6.2186                 1.3186                 6.5886
 IR Active:          YES                    YES                    YES
 IR Intens:      144.243                 13.601                 80.233
 Raman Active:       YES                    YES                    YES
               X      Y      Z        X      Y      Z        X      Y      Z
 O          0.079 -0.148  0.130    0.010  0.031 -0.019    0.004  0.225 -0.158
 C         -0.111 -0.264 -0.032   -0.027 -0.034 -0.055    0.071 -0.231 -0.161
 C          0.086 -0.037 -0.042   -0.025  0.019 -0.006   -0.169  0.234  0.003
 O          0.139 -0.042  0.040    0.015  0.010  0.013    0.289 -0.203  0.016
 O         -0.057 -0.006  0.181    0.044  0.034  0.046   -0.070 -0.039  0.115
 C          0.015  0.282 -0.100   -0.050 -0.086 -0.037   -0.135  0.003  0.118
 C         -0.151  0.247 -0.252    0.009 -0.011  0.033   -0.026 -0.024  0.072
 Li        -0.045  0.021  0.001   -0.004  0.003 -0.000   -0.039  0.032 -0.002
 H          0.079 -0.129  0.017   -0.034  0.042 -0.021   -0.177  0.221  0.019
 H          0.104 -0.117 -0.010   -0.016 -0.032  0.003   -0.166  0.151  0.040
 H         -0.422  0.183 -0.434   -0.290 -0.442 -0.247    0.360  0.104  0.329
 H         -0.095  0.314 -0.083    0.395  0.553  0.408   -0.203 -0.208 -0.325
 TransDip  -0.325  0.180 -0.100   -0.106  0.041 -0.032   -0.226  0.172 -0.045

 Symmetry:           ???                    ???                    ???

 Mode:                13                     14                     15
 Frequency:       877.52                 906.52                 938.77
 Force Cnst:      0.6003                 1.1376                 2.4586
 Red. Mass:       1.3232                 2.3496                 4.7350
 IR Active:          YES                    YES                    YES
 IR Intens:       57.537                 15.516                 34.893
 Raman Active:       YES                    YES                    YES
               X      Y      Z        X      Y      Z        X      Y      Z
 O         -0.004 -0.003  0.001   -0.022  0.032 -0.022    0.152  0.106 -0.221
 C          0.006  0.003  0.008    0.013  0.009 -0.035   -0.018  0.065  0.047
 C          0.007  0.007  0.011   -0.140 -0.012  0.246    0.087 -0.049 -0.088
 O          0.001 -0.003 -0.002    0.016 -0.005 -0.006   -0.101  0.070  0.004
 O         -0.000  0.001 -0.006    0.077 -0.030 -0.034   -0.210 -0.123  0.241
 C          0.021  0.027  0.019    0.014 -0.025 -0.071    0.023  0.018  0.020
 C         -0.084 -0.114 -0.081    0.073  0.037 -0.117    0.110 -0.067 -0.044
 Li        -0.001  0.000 -0.000   -0.000  0.001 -0.001    0.007 -0.010 -0.001
 H         -0.037 -0.025  0.049   -0.164 -0.091  0.318    0.159 -0.094 -0.074
 H          0.008  0.008 -0.054   -0.125 -0.177  0.319    0.125 -0.254  0.112
 H          0.361  0.538  0.339   -0.343  0.482 -0.246   -0.284  0.325 -0.161
 H          0.322  0.492  0.290   -0.024 -0.275  0.331    0.065 -0.343  0.523
 TransDip   0.110  0.187  0.110   -0.094  0.083  0.008   -0.157  0.105 -0.014

 Symmetry:           ???                    ???                    ???

 Mode:                16                     17                     18
 Frequency:      1021.92                1046.55                1140.33
 Force Cnst:      1.3415                 1.3897                 5.6062
 Red. Mass:       2.1802                 2.1535                 7.3175
 IR Active:          YES                    YES                    YES
 IR Intens:       53.134                 52.291                244.407
 Raman Active:       YES                    YES                    YES
               X      Y      Z        X      Y      Z        X      Y      Z
 O         -0.003  0.053 -0.088    0.007  0.098 -0.040    0.333 -0.306 -0.078
 C         -0.034 -0.014  0.063   -0.021 -0.007  0.046   -0.012  0.046  0.051
 C          0.126  0.028  0.103   -0.110 -0.126 -0.034   -0.309  0.366 -0.011
 O         -0.033  0.053 -0.020   -0.016  0.036 -0.023   -0.114  0.074  0.017
 O          0.077 -0.105  0.046    0.110 -0.114  0.003    0.049 -0.104  0.027
 C         -0.040 -0.068 -0.075    0.057  0.078  0.035    0.038 -0.023 -0.038
 C         -0.095  0.083  0.016   -0.092  0.029  0.014   -0.056  0.021  0.036
 Li         0.002 -0.003 -0.000    0.001 -0.002 -0.000    0.009 -0.011 -0.002
 H         -0.419 -0.129  0.372    0.417 -0.017 -0.253    0.007 -0.038  0.189
 H          0.185 -0.323 -0.381   -0.130 -0.071  0.682   -0.338  0.524  0.025
 H          0.192 -0.102  0.125    0.096 -0.185  0.061    0.108 -0.086  0.100
 H         -0.108  0.214 -0.413   -0.014  0.268 -0.253   -0.044  0.128 -0.202
 TransDip  -0.199  0.122 -0.008   -0.213  0.091 -0.006   -0.393  0.311 -0.001

 Symmetry:           ???                    ???                    ???

 Mode:                19                     20                     21
 Frequency:      1202.66                1220.03                1369.23
 Force Cnst:      1.6048                 1.4868                 4.4151
 Red. Mass:       1.8832                 1.6953                 3.9971
 IR Active:          YES                    YES                    YES
 IR Intens:      102.242                173.286                159.561
 Raman Active:       YES                    YES                    YES
               X      Y      Z        X      Y      Z        X      Y      Z
 O         -0.013  0.034  0.053   -0.039 -0.072  0.014    0.009  0.024 -0.035
 C          0.069  0.100 -0.152    0.079  0.083 -0.128    0.027  0.008 -0.046
 C          0.002 -0.082 -0.004    0.025  0.027  0.030   -0.071 -0.125  0.196
 O         -0.017  0.004  0.012   -0.027  0.009  0.014    0.009 -0.021  0.013
 O          0.035 -0.100  0.068    0.034 -0.087  0.046   -0.164  0.073  0.073
 C         -0.057 -0.017  0.037   -0.030  0.040  0.048    0.310 -0.067 -0.215
 C         -0.016  0.034 -0.028   -0.012  0.008 -0.011   -0.071  0.009  0.057
 Li         0.005 -0.003 -0.000   -0.000 -0.001 -0.001   -0.003  0.004  0.002
 H          0.155 -0.329  0.150   -0.253  0.751 -0.450    0.040  0.472 -0.302
 H         -0.135  0.766 -0.378    0.082 -0.318  0.035   -0.141  0.381 -0.285
 H         -0.081  0.090 -0.056   -0.042  0.035 -0.023    0.154 -0.196  0.125
 H         -0.021  0.053 -0.064   -0.007  0.028 -0.014   -0.027  0.183 -0.262
 TransDip   0.226  0.039 -0.229   -0.114  0.334 -0.230    0.321 -0.239  0.056

 Symmetry:           ???                    ???                    ???

 Mode:                22                     23                     24
 Frequency:      1390.03                1441.25                1518.94
 Force Cnst:      2.0816                 1.5514                 1.5014
 Red. Mass:       1.8285                 1.2676                 1.1045
 IR Active:          YES                    YES                    YES
 IR Intens:       47.548                 52.838                 15.744
 Raman Active:       YES                    YES                    YES
               X      Y      Z        X      Y      Z        X      Y      Z
 O         -0.054 -0.015  0.065    0.020  0.002 -0.020   -0.012  0.003  0.015
 C          0.051  0.091 -0.124   -0.017 -0.022  0.041   -0.007  0.030 -0.019
 C          0.002  0.067 -0.063   -0.005 -0.040  0.049   -0.056  0.042  0.038
 O          0.006 -0.022  0.015    0.001  0.004 -0.006    0.009 -0.011  0.001
 O         -0.036 -0.025  0.055    0.033 -0.016 -0.011    0.005 -0.010  0.003
 C          0.066  0.028 -0.124   -0.066  0.071 -0.031   -0.004  0.007 -0.002
 C         -0.030 -0.002  0.032   -0.017  0.038 -0.043    0.001 -0.005  0.006
 Li         0.001 -0.001  0.001   -0.001  0.000 -0.000    0.001 -0.001 -0.000
 H         -0.079 -0.425  0.354    0.030  0.149 -0.115    0.698 -0.113 -0.081
 H          0.051 -0.344  0.439   -0.035  0.176 -0.203    0.055 -0.481 -0.500
 H          0.336 -0.308  0.174    0.465 -0.404  0.135   -0.007  0.009  0.005
 H         -0.043 -0.124  0.221   -0.078 -0.319  0.601    0.001  0.003 -0.017
 TransDip   0.161  0.066 -0.136   -0.207  0.095  0.049    0.001  0.064 -0.110

 Symmetry:           ???                    ???                    ???

 Mode:                25                     26                     27
 Frequency:      1629.27                1700.28                3066.60
 Force Cnst:     16.7717                11.6719                 5.8779
 Red. Mass:      10.7236                 6.8526                 1.0609
 IR Active:          YES                    YES                    YES
 IR Intens:       99.472                737.158                287.070
 Raman Active:       YES                    YES                    YES
               X      Y      Z        X      Y      Z        X      Y      Z
 O         -0.082  0.039  0.029   -0.002 -0.007  0.004    0.001 -0.001  0.000
 C          0.613 -0.500 -0.028    0.108 -0.093  0.032   -0.002 -0.002  0.000
 C         -0.047  0.052 -0.016   -0.001 -0.047  0.068    0.024 -0.036 -0.054
 O         -0.284  0.260  0.010   -0.037  0.033 -0.005   -0.001  0.001  0.000
 O         -0.062  0.055 -0.012    0.036 -0.038  0.007   -0.000  0.001  0.000
 C          0.034 -0.077  0.075   -0.223  0.393 -0.353   -0.001  0.001 -0.001
 C         -0.040  0.081 -0.077    0.142 -0.273  0.271   -0.000  0.000 -0.000
 Li        -0.023  0.018 -0.002   -0.008  0.004 -0.000    0.000 -0.000  0.000
 H          0.237 -0.185  0.073   -0.033 -0.022  0.023    0.205  0.521  0.666
 H         -0.022 -0.157 -0.034   -0.038  0.177 -0.107   -0.479 -0.087 -0.028
 H          0.129 -0.091 -0.040   -0.390  0.182  0.146   -0.009 -0.003  0.014
 H         -0.073 -0.026  0.143    0.273  0.075 -0.371    0.016 -0.009 -0.004
 TransDip   0.075 -0.285 -0.124   -0.610  0.550 -0.285    0.421 -0.342 -0.019

 Symmetry:           ???                    ???                    ???

 Mode:                28                     29                     30
 Frequency:      3106.41                3176.68                3266.57
 Force Cnst:      6.2896                 6.3010                 7.0284
 Red. Mass:       1.1062                 1.0598                 1.1179
 IR Active:          YES                    YES                    YES
 IR Intens:       33.224                 29.581                  0.820
 Raman Active:       YES                    YES                    YES
               X      Y      Z        X      Y      Z        X      Y      Z
 O          0.001  0.000  0.000    0.000  0.000 -0.000   -0.000 -0.000  0.000
 C          0.001 -0.002 -0.001   -0.000 -0.000 -0.000   -0.000  0.000 -0.000
 C         -0.082 -0.035 -0.031   -0.001  0.001  0.002    0.000 -0.000  0.000
 O         -0.000  0.001  0.000   -0.000  0.000  0.000   -0.000  0.000  0.000
 O          0.001 -0.000 -0.000    0.001 -0.000  0.000   -0.000  0.000 -0.000
 C         -0.000  0.001 -0.001    0.003 -0.005  0.005    0.001 -0.000 -0.001
 C          0.001 -0.000  0.000   -0.028  0.046 -0.042    0.078 -0.014 -0.061
 Li         0.000 -0.000  0.000    0.000 -0.000 -0.000    0.000 -0.000  0.000
 H          0.094  0.282  0.373   -0.005 -0.012 -0.017   -0.000 -0.002 -0.001
 H          0.862  0.141  0.012    0.011  0.001  0.000   -0.003 -0.001  0.001
 H         -0.001 -0.001  0.003   -0.337 -0.138  0.571   -0.352 -0.161  0.621
 H         -0.003 -0.001 -0.000    0.632 -0.346 -0.129   -0.581  0.325  0.108
 TransDip   0.120 -0.140  0.003    0.116 -0.112  0.065    0.019 -0.021  0.004

 STANDARD THERMODYNAMIC QUANTITIES AT   298.15 K  AND     1.00 ATM

   This Molecule has  1 Imaginary Frequencies
   Zero point vibrational energy:       49.551 kcal/mol

   Atom    1 Element O  Has Mass   15.99491
   Atom    2 Element C  Has Mass   12.00000
   Atom    3 Element C  Has Mass   12.00000
   Atom    4 Element O  Has Mass   15.99491
   Atom    5 Element O  Has Mass   15.99491
   Atom    6 Element C  Has Mass   12.00000
   Atom    7 Element C  Has Mass   12.00000
   Atom    8 Element Li Has Mass    7.01600
   Atom    9 Element H  Has Mass    1.00783
   Atom   10 Element H  Has Mass    1.00783
   Atom   11 Element H  Has Mass    1.00783
   Atom   12 Element H  Has Mass    1.00783
   Molecular Mass:   107.032050 amu
   Principal axes and moments of inertia in amu*Bohr^2:
                             1           2           3
    Eigenvalues --      302.61679  1148.53674  1428.77402
          X              -0.63426    -0.50221     0.58779
          Y               0.75679    -0.24787     0.60484
          Z              -0.15806     0.82846     0.53728
   Rotational Symmetry Number is   1
   The Molecule is an Asymmetric Top
   Translational Enthalpy:        0.889 kcal/mol
   Rotational Enthalpy:           0.889 kcal/mol
   Vibrational Enthalpy:         52.246 kcal/mol
   gas constant (RT):             0.592 kcal/mol
   Translational Entropy:        39.920  cal/mol.K
   Rotational Entropy:           27.698  cal/mol.K
   Vibrational Entropy:          16.674  cal/mol.K

   Total Enthalpy:               54.616 kcal/mol
   Total Entropy:                84.292  cal/mol.K
Archival summary:
1\1\nid01046\FREQ\ProcedureUnspecified\BasisUnspecified\34i14(2)\jself\MonJan2923:31:332018MonJan2923:31:332018\0\\#,FREQ,ProcedureUnspecified,BasisUnspecified,\\0,2\O\C,1,1.33923\O,2,1.23675,1,125.06\O,2,1.33635,1,109.864,3,-179.385,0\C,1,1.34111,2,110.177,3,175.131,0\C,5,1.34104,1,122.014,2,-162.671,0\H,6,1.08059,5,121.065,1,-2.54897,0\H,6,1.0812,5,121.515,1,177.659,0\C,4,1.40924,2,109.326,1,-7.79263,0\H,9,1.09092,4,110.043,2,-103.723,0\H,9,1.0915,4,111.977,2,135.988,0\Li,3,2.00827,2,177.348,1,-33.0982,0\\\@

 Total job time:  533.41s(wall), 534.15s(cpu) 
 Mon Jan 29 23:31:33 2018

        *************************************************************
        *                                                           *
        *  Thank you very much for using Q-Chem.  Have a nice day.  *
        *                                                           *
        *************************************************************


0 sent ACK to 0 
now end server 0 ... 
 
*************************************************************
Job 2 of 5 
*************************************************************
 
Process 4 of 12 is on nid01046 - thread support 0
Process 6 of 12 is on nid01046 - thread support 0
Process 11 of 12 is on nid01046 - thread support 0
Process 0 of 12 is on nid01046 - thread support 0
Process 1 of 12 is on nid01046 - thread support 0
Process 2 of 12 is on nid01046 - thread support 0
Process 3 of 12 is on nid01046 - thread support 0
Process 5 of 12 is on nid01046 - thread support 0
initial socket setup ...start
initial socket setup ...done 
now start server 0 ... 
nid01046 10.128.4
Q-Chem Developer Version! Running on 10.128.4.*
                  Welcome to Q-Chem
     A Quantum Leap Into The Future Of Chemistry


 Q-Chem 5.0 (beta), Q-Chem, Inc., Pleasanton, CA (2017)

 Yihan Shao,  Zhengting Gan,  E. Epifanovsky,  A. T. B. Gilbert,  M. Wormit,  
 J. Kussmann,  A. W. Lange,  A. Behn,  Jia Deng,  Xintian Feng,  D. Ghosh,  
 M. Goldey,  P. R. Horn,  L. D. Jacobson,  I. Kaliman,  R. Z. Khaliullin,  
 T. Kus,  A. Landau,  Jie Liu,  E. I. Proynov,  Y. M. Rhee,  R. M. Richard,  
 M. A. Rohrdanz,  R. P. Steele,  E. J. Sundstrom,  H. L. Woodcock III,  
 P. M. Zimmerman,  D. Zuev,  B. Albrecht,  E. Alguire,  B. Austin,  
 S. A. Baeppler,  Z. Benda,  G. J. O. Beran,  Y. A. Bernard,  E. J. Berquist,  
 K. Brandhorst,  K. B. Bravaya,  S. T. Brown,  D. Casanova,  Chun-Min Chang,  
 Yunqing Chen,  Siu Hung Chien,  K. D. Closser,  M. P. Coons,  
 D. L. Crittenden,  S. Dasgupta,  M. Diedenhofen,  R. A. DiStasio Jr.,  
 Hainam Do,  A. D. Dutoi,  R. G. Edgar,  Po-Tung Fang,  S. Fatehi,  
 Qingguo Feng,  L. Fusti-Molnar,  Qinghui Ge,  A. Ghysels,  
 A. Golubeva-Zadorozhnaya,  J. Gomes,  J. Gonthier,  A. Gunina,  
 M. W. D. Hanson-Heine,  P. H. P. Harbach,  A. W. Hauser,  J. E. Herr,  
 E. G. Hohenstein,  Z. C. Holden,  Kerwin Hui,  T.-C. Jagau,  Hyunjun Ji,  
 B. Kaduk,  K. Khistyaev,  Jaehoon Kim,  Jihan Kim,  R. A. King,  
 P. Klunzinger,  K. Koh,  D. Kosenkov,  T. Kowalczyk,  C. M. Krauter,  
 A. Kunitsa,  Ka Un Lao,  A. Laurent,  K. V. Lawler,  Joonho Lee,  
 D. Lefrancois,  S. Lehtola,  S. V. Levchenko,  D. S. Levine,  Yi-Pei Li,  
 Ching Yeh Lin,  You-Sheng Lin,  Fenglai Liu,  E. Livshits,  R. C. Lochan,  
 A. Luenser,  P. Manohar,  E. Mansoor,  S. F. Manzer,  Shan-Ping Mao,  
 Yuezhi Mao,  N. Mardirossian,  A. V. Marenich,  L. A. Martinez-Martinez,  
 S. A. Maurer,  N. J. Mayhall,  J.-M. Mewes,  A. F. Morrison,  K. Nanda,  
 T. S. Nguyen-Beck,  C. M. Oana,  R. Olivares-Amaya,  D. P. O'Neill,  
 J. A. Parkhill,  T. M. Perrine,  R. Peverati,  P. A. Pieniazek,  F. Plasser,  
 S. Prager,  A. Prociuk,  D. R. Rehn,  F. Rob,  E. Rosta,  N. J. Russ,  
 N. Sergueev,  S. M. Sharada,  S. Sharma,  D. W. Small,  A. Sodt,  T. Stauch,  
 T. Stein,  D. Stuck,  Yu-Chuan Su,  A. J. W. Thom,  T. Tsuchimochi,  
 V. Vanovschi,  L. Vogt,  O. Vydrov,  Tao Wang,  M. A. Watson,  J. Wenzel,  
 T. A. Wesolowski,  A. White,  C. F. Williams,  J. Witte,  Jun Yang,  K. Yao,  
 S. Yeganeh,  S. R. Yost,  Zhi-Qiang You,  A. Zech,  Igor Ying Zhang,  
 Xing Zhang,  Yan Zhao,  Ying Zhu,  B. R. Brooks,  G. K. L. Chan,  
 D. M. Chipman,  C. J. Cramer,  W. A. Goddard III,  M. S. Gordon,  
 W. J. Hehre,  A. Klamt,  H. F. Schaefer III,  M. W. Schmidt,  
 C. D. Sherrill,  D. G. Truhlar,  A. Warshel,  X. Xu,  A. Aspuru-Guzik,  
 R. Baer,  A. T. Bell,  N. A. Besley,  J.-D. Chai,  A. Dreuw,  B. D. Dunietz,  
 T. R. Furlani,  S. R. Gwaltney,  C.-P. Hsu,  Y. Jung,  J. Kong,  
 D. S. Lambrecht,  W. Liang,  C. Ochsenfeld,  V. A. Rassolov,  
 L. V. Slipchenko,  J. E. Subotnik,  T. Van Voorhis,  J. M. Herbert,  
 A. I. Krylov,  P. M. W. Gill,  M. Head-Gordon

 Contributors to earlier versions of Q-Chem not listed above: 
 R. D. Adamson,  J. Baker,  E. F. C. Byrd,  A. K. Chakraborty,  C.-L. Cheng,  
 H. Dachsel,  R. J. Doerksen,  G. Hawkins,  A. Heyden,  S. Hirata,  
 G. Kedziora,  F. J. Keil,  C. Kelley,  P. P. Korambath,  W. Kurlancheek,  
 A. M. Lee,  M. S. Lee,  D. Liotard,  I. Lotan,  P. E. Maslen,  N. Nair,  
 D. Neuhauser,  R. Olson,  B. Peters,  J. Ritchie,  N. E. Schultz,  
 N. Shenvi,  A. C. Simmonett,  K. S. Thanthiriwatte,  Q. Wu,  W. Zhang

 Please cite Q-Chem as follows:
 Y. Shao et al., Mol. Phys. 113, 184-215 (2015)
 DOI: 10.1080/00268976.2014.952696

 Q-Chem 4.4.2 for Intel X86 EM64T Linux

 Parts of Q-Chem use Armadillo 5.200.1 (Boston Tea Smuggler).
 http://arma.sourceforge.net/

 Q-Chem begins on Mon Jan 29 23:31:46 2018  

Host: nid01046
0

     Scratch files written to /dev/shm/eg_qchem/qchem39107.0//
 Parallel job on  12  processors
The previous job contains 0 fragments, simply inherited here

Checking the input file for inconsistencies... 	...done.
[HyperChem begin]
[HyperChem end]
[HyperChem begin]
[HyperChem end]
[HyperChem begin]
[HyperChem end]
[HyperChem begin]
[HyperChem end]
[HyperChem begin]
[HyperChem end]
[HyperChem begin]
[HyperChem end]
[HyperChem begin]
[HyperChem end]
[HyperChem begin]
[HyperChem end]

--------------------------------------------------------------
User input:
--------------------------------------------------------------

$molecule
read
$end

$rem
   BASIS  =  6-311++G**
   GUI  =  1
   SYM_IGNORE = true
   METHOD  =  B3LYP
   JOB_TYPE  =  Optimization
   MAX_SCF_CYCLES  =  300
   gen_scfman = True 
   geom_opt_hessian = read    
$end

--------------------------------------------------------------
 ----------------------------------------------------------------
             Standard Nuclear Orientation (Angstroms)
    I     Atom           X                Y                Z
 ----------------------------------------------------------------
    1      O      -0.9770000000     2.5730000000     0.3830000000
    2      C       0.0550000000     2.5690000000    -0.4660000000
    3      C      -1.6840000000     3.7850000000     0.2520000000
    4      O       0.9390000000     1.7050000000    -0.5060000000
    5      O      -0.0180000000     3.6330000000    -1.2760000000
    6      C      -1.1490000000     4.3150000000    -1.0430000000
    7      C      -1.6360000000     5.2050000000    -1.9200000000
    8      Li      2.3790000000     0.3140000000    -0.6630000000
    9      H      -1.4510000000     4.4460000000     1.0880000000
   10      H      -2.7640000000     3.6280000000     0.2340000000
   11      H      -1.1070000000     5.4340000000    -2.8340000000
   12      H      -2.5680000000     5.7230000000    -1.7410000000
 ----------------------------------------------------------------
 Nuclear Repulsion Energy =   321.9310651250 hartrees
 There are       28 alpha and       27 beta electrons
[HyperChem begin]
[HyperChem end]
[HyperChem begin]
;Nuclear Cartesian coordinates in Angstroms
[coordinates]
     -0.977000000000      2.573000000000      0.383000000000
      0.055000000000      2.569000000000     -0.466000000000
     -1.684000000000      3.785000000000      0.252000000000
      0.939000000000      1.705000000000     -0.506000000000
     -0.018000000000      3.633000000000     -1.276000000000
     -1.149000000000      4.315000000000     -1.043000000000
     -1.636000000000      5.205000000000     -1.920000000000
      2.379000000000      0.314000000000     -0.663000000000
     -1.451000000000      4.446000000000      1.088000000000
     -2.764000000000      3.628000000000      0.234000000000
     -1.107000000000      5.434000000000     -2.834000000000
     -2.568000000000      5.723000000000     -1.741000000000
[HyperChem end]
[HyperChem begin]
[HyperChem end]
 Requested basis set is 6-311++G(d,p)
[HyperChem begin]
[basis]
;
1:
;
Shells = 6
Shell1 =[ S   6   1.00 ]
   1    8.588500E+03    1.895150E-03
   2    1.297230E+03    1.438590E-02
   3    2.992960E+02    7.073200E-02
   4    8.737710E+01    2.400010E-01
   5    2.567890E+01    5.947970E-01
   6    3.740040E+00    2.808020E-01
Shell2 =[ SP  3   1.00 ]
   1    4.211750E+01    1.138890E-01    3.651140E-02
   2    9.628370E+00    9.208110E-01    2.371530E-01
   3    2.853320E+00   -3.274470E-03    8.197020E-01
Shell3 =[ SP  1   1.00 ]
   1    9.056610E-01    1.000000E+00    1.000000E+00
Shell4 =[ SP  1   1.00 ]
   1    2.556110E-01    1.000000E+00    1.000000E+00
Shell5 =[ SP  1   1.00 ]
   1    8.450000E-02    1.000000E+00    1.000000E+00
Shell6 =[ D   1   1.00 ]
   1    1.292000E+00    1.000000E+00
;
2:
;
Shells = 6
Shell1 =[ S   6   1.00 ]
   1    4.563240E+03    1.966650E-03
   2    6.820240E+02    1.523060E-02
   3    1.549730E+02    7.612690E-02
   4    4.445530E+01    2.608010E-01
   5    1.302900E+01    6.164620E-01
   6    1.827730E+00    2.210060E-01
Shell2 =[ SP  3   1.00 ]
   1    2.096420E+01    1.146600E-01    4.024870E-02
   2    4.803310E+00    9.199990E-01    2.375940E-01
   3    1.459330E+00   -3.030680E-03    8.158540E-01
Shell3 =[ SP  1   1.00 ]
   1    4.834560E-01    1.000000E+00    1.000000E+00
Shell4 =[ SP  1   1.00 ]
   1    1.455850E-01    1.000000E+00    1.000000E+00
Shell5 =[ SP  1   1.00 ]
   1    4.380000E-02    1.000000E+00    1.000000E+00
Shell6 =[ D   1   1.00 ]
   1    6.260000E-01    1.000000E+00
;
3:
;
Shells = 6
Shell1 =[ S   6   1.00 ]
   1    4.563240E+03    1.966650E-03
   2    6.820240E+02    1.523060E-02
   3    1.549730E+02    7.612690E-02
   4    4.445530E+01    2.608010E-01
   5    1.302900E+01    6.164620E-01
   6    1.827730E+00    2.210060E-01
Shell2 =[ SP  3   1.00 ]
   1    2.096420E+01    1.146600E-01    4.024870E-02
   2    4.803310E+00    9.199990E-01    2.375940E-01
   3    1.459330E+00   -3.030680E-03    8.158540E-01
Shell3 =[ SP  1   1.00 ]
   1    4.834560E-01    1.000000E+00    1.000000E+00
Shell4 =[ SP  1   1.00 ]
   1    1.455850E-01    1.000000E+00    1.000000E+00
Shell5 =[ SP  1   1.00 ]
   1    4.380000E-02    1.000000E+00    1.000000E+00
Shell6 =[ D   1   1.00 ]
   1    6.260000E-01    1.000000E+00
;
4:
;
Shells = 6
Shell1 =[ S   6   1.00 ]
   1    8.588500E+03    1.895150E-03
   2    1.297230E+03    1.438590E-02
   3    2.992960E+02    7.073200E-02
   4    8.737710E+01    2.400010E-01
   5    2.567890E+01    5.947970E-01
   6    3.740040E+00    2.808020E-01
Shell2 =[ SP  3   1.00 ]
   1    4.211750E+01    1.138890E-01    3.651140E-02
   2    9.628370E+00    9.208110E-01    2.371530E-01
   3    2.853320E+00   -3.274470E-03    8.197020E-01
Shell3 =[ SP  1   1.00 ]
   1    9.056610E-01    1.000000E+00    1.000000E+00
Shell4 =[ SP  1   1.00 ]
   1    2.556110E-01    1.000000E+00    1.000000E+00
Shell5 =[ SP  1   1.00 ]
   1    8.450000E-02    1.000000E+00    1.000000E+00
Shell6 =[ D   1   1.00 ]
   1    1.292000E+00    1.000000E+00
;
5:
;
Shells = 6
Shell1 =[ S   6   1.00 ]
   1    8.588500E+03    1.895150E-03
   2    1.297230E+03    1.438590E-02
   3    2.992960E+02    7.073200E-02
   4    8.737710E+01    2.400010E-01
   5    2.567890E+01    5.947970E-01
   6    3.740040E+00    2.808020E-01
Shell2 =[ SP  3   1.00 ]
   1    4.211750E+01    1.138890E-01    3.651140E-02
   2    9.628370E+00    9.208110E-01    2.371530E-01
   3    2.853320E+00   -3.274470E-03    8.197020E-01
Shell3 =[ SP  1   1.00 ]
   1    9.056610E-01    1.000000E+00    1.000000E+00
Shell4 =[ SP  1   1.00 ]
   1    2.556110E-01    1.000000E+00    1.000000E+00
Shell5 =[ SP  1   1.00 ]
   1    8.450000E-02    1.000000E+00    1.000000E+00
Shell6 =[ D   1   1.00 ]
   1    1.292000E+00    1.000000E+00
;
6:
;
Shells = 6
Shell1 =[ S   6   1.00 ]
   1    4.563240E+03    1.966650E-03
   2    6.820240E+02    1.523060E-02
   3    1.549730E+02    7.612690E-02
   4    4.445530E+01    2.608010E-01
   5    1.302900E+01    6.164620E-01
   6    1.827730E+00    2.210060E-01
Shell2 =[ SP  3   1.00 ]
   1    2.096420E+01    1.146600E-01    4.024870E-02
   2    4.803310E+00    9.199990E-01    2.375940E-01
   3    1.459330E+00   -3.030680E-03    8.158540E-01
Shell3 =[ SP  1   1.00 ]
   1    4.834560E-01    1.000000E+00    1.000000E+00
Shell4 =[ SP  1   1.00 ]
   1    1.455850E-01    1.000000E+00    1.000000E+00
Shell5 =[ SP  1   1.00 ]
   1    4.380000E-02    1.000000E+00    1.000000E+00
Shell6 =[ D   1   1.00 ]
   1    6.260000E-01    1.000000E+00
;
7:
;
Shells = 6
Shell1 =[ S   6   1.00 ]
   1    4.563240E+03    1.966650E-03
   2    6.820240E+02    1.523060E-02
   3    1.549730E+02    7.612690E-02
   4    4.445530E+01    2.608010E-01
   5    1.302900E+01    6.164620E-01
   6    1.827730E+00    2.210060E-01
Shell2 =[ SP  3   1.00 ]
   1    2.096420E+01    1.146600E-01    4.024870E-02
   2    4.803310E+00    9.199990E-01    2.375940E-01
   3    1.459330E+00   -3.030680E-03    8.158540E-01
Shell3 =[ SP  1   1.00 ]
   1    4.834560E-01    1.000000E+00    1.000000E+00
Shell4 =[ SP  1   1.00 ]
   1    1.455850E-01    1.000000E+00    1.000000E+00
Shell5 =[ SP  1   1.00 ]
   1    4.380000E-02    1.000000E+00    1.000000E+00
Shell6 =[ D   1   1.00 ]
   1    6.260000E-01    1.000000E+00
;
8:
;
Shells = 6
Shell1 =[ S   6   1.00 ]
   1    9.004600E+02    2.287040E-03
   2    1.344330E+02    1.763500E-02
   3    3.043650E+01    8.734340E-02
   4    8.626390E+00    2.809770E-01
   5    2.483320E+00    6.587410E-01
   6    3.031790E-01    1.187120E-01
Shell2 =[ SP  3   1.00 ]
   1    4.868900E+00    9.332930E-02    3.276610E-02
[...]
   H ( 12)  4.162495  4.325364  2.865085  5.478687  3.360091  2.082359
             C (  7)   Li(  8)   H (  9)   H ( 10)   H ( 11)
   Li(  8)  6.418208
   H (  9)  3.017238  5.317128
   H ( 10)  2.993417  5.332028  1.789386
   H ( 11)  1.081345  6.783888  4.003873  3.992766
   H ( 12)  1.081555  7.233142  3.087540  3.034790  1.862456
 
 Final energy is   -388.117230088258     


 ******************************
 **  OPTIMIZATION CONVERGED  **
 ******************************

                       Coordinates (Angstroms)
     ATOM                X               Y               Z
      1  O        -0.6428109545    2.6157771184    0.3409035446
      2  C         0.2042895474    2.6051481373   -0.6868625521
      3  C        -1.5863309025    3.7098426717    0.1865926993
      4  O         1.1003752687    1.8117350005   -0.8379719308
      5  O        -0.0776738776    3.5784043356   -1.5760496107
      6  C        -1.1939843068    4.3017000373   -1.1416999198
      7  C        -1.7056932895    5.2968146856   -1.8439245724
      8  Li        1.8102335462    0.2941608185    0.1067436814
      9  H        -1.4474400198    4.3951778176    1.0238417651
     10  H        -2.5946174127    3.2973823047    0.1987776091
     11  H        -1.2804725134    5.5909968247   -2.7936356421
     12  H        -2.5668750856    5.8328602482   -1.4687150716

Z-matrix Print:
$molecule
0 2
O 
C  1 1.348104
O  2 1.206362 1 123.199604
O  2 1.331914 1 111.726726 3 -178.404823 0
C  1 1.399273 2 109.590593 3 177.988880 0
C  5 1.321067 1 122.234338 2 -178.398256 0
H  6 1.081345 5 121.296144 1 0.306371 0
H  6 1.081555 5 119.824962 1 -179.701394 0
C  4 1.452935 2 109.698359 1 -1.548954 0
H  9 1.089456 4 108.344920 2 123.109482 0
H  9 1.090853 4 107.991845 2 -117.406561 0
Li 3 1.923387 2 137.015995 1 -178.198952 0
$end

 
 --------------------------------------------------------------
 
                    Orbital Energies (a.u.)
 --------------------------------------------------------------
 
 Alpha MOs
 -- Occupied --
-19.231 -19.223 -19.164 -10.400 -10.283 -10.282 -10.198  -1.964
 -1.215  -1.102  -1.093  -0.841  -0.759  -0.676  -0.647  -0.565
 -0.561  -0.522  -0.506  -0.481  -0.466  -0.428  -0.427  -0.412
 -0.363  -0.359  -0.287  -0.074
 -- Virtual --
 -0.042  -0.020  -0.015  -0.003   0.000   0.001   0.015   0.017
  0.025   0.028   0.031   0.033   0.036   0.045   0.052   0.070
  0.074   0.095   0.096   0.105   0.109   0.112   0.113   0.118
  0.119   0.123   0.133   0.134   0.142   0.143   0.149   0.165
  0.188   0.190   0.197   0.209   0.214   0.226   0.243   0.253
  0.261   0.266   0.285   0.297   0.299   0.304   0.315   0.322
  0.328   0.355   0.360   0.374   0.392   0.395   0.435   0.458
  0.469   0.480   0.494   0.499   0.504   0.511   0.530   0.539
  0.567   0.570   0.577   0.580   0.624   0.640   0.646   0.659
  0.690   0.708   0.734   0.743   0.772   0.788   0.819   0.850
  0.862   0.894   0.957   0.973   1.010   1.018   1.048   1.079
  1.099   1.126   1.178   1.199   1.205   1.225   1.244   1.296
  1.346   1.372   1.406   1.414   1.450   1.462   1.506   1.542
  1.581   1.585   1.595   1.679   1.686   1.690   1.728   1.756
  1.810   1.861   1.879   1.896   1.909   1.957   1.978   2.080
  2.127   2.171   2.239   2.330   2.461   2.479   2.495   2.527
  2.578   2.580   2.695   2.697   2.762   2.789   2.794   2.829
  2.865   2.885   2.923   3.017   3.027   3.055   3.056   3.103
  3.151   3.168   3.203   3.332   3.504   3.521   3.629   3.646
  3.731   3.753   3.759   3.967   4.043   4.091   4.119   4.228
  4.935   4.970   5.004   5.173   5.268   5.397   5.448   5.862
  5.900  23.635  23.778  23.810  24.248  49.810  49.885  49.999
 
 Beta MOs
 -- Occupied --
-19.231 -19.223 -19.163 -10.399 -10.283 -10.282 -10.198  -1.959
 -1.215  -1.102  -1.093  -0.841  -0.758  -0.676  -0.647  -0.565
 -0.561  -0.522  -0.506  -0.481  -0.466  -0.428  -0.426  -0.412
 -0.362  -0.359  -0.287
 -- Virtual --
 -0.041  -0.027  -0.012  -0.010   0.003   0.007   0.010   0.021
  0.023   0.029   0.033   0.038   0.042   0.042   0.048   0.060
  0.069   0.075   0.098   0.105   0.107   0.111   0.115   0.116
  0.128   0.130   0.133   0.134   0.135   0.144   0.146   0.150
  0.172   0.188   0.192   0.197   0.209   0.220   0.226   0.242
  0.253   0.263   0.268   0.284   0.296   0.302   0.307   0.316
  0.329   0.332   0.355   0.360   0.378   0.393   0.399   0.438
  0.459   0.473   0.480   0.498   0.504   0.513   0.516   0.536
  0.539   0.571   0.575   0.587   0.592   0.635   0.648   0.648
  0.661   0.691   0.713   0.734   0.745   0.777   0.789   0.831
  0.853   0.865   0.894   0.957   0.973   1.011   1.018   1.048
  1.080   1.099   1.126   1.178   1.200   1.204   1.226   1.244
  1.296   1.346   1.372   1.407   1.414   1.450   1.463   1.506
  1.543   1.581   1.585   1.596   1.680   1.686   1.690   1.729
  1.756   1.810   1.862   1.879   1.897   1.909   1.957   1.978
  2.080   2.127   2.171   2.239   2.330   2.462   2.479   2.495
  2.527   2.578   2.580   2.695   2.697   2.762   2.789   2.794
  2.829   2.865   2.885   2.923   3.017   3.028   3.055   3.057
  3.103   3.152   3.168   3.203   3.333   3.505   3.521   3.629
  3.646   3.732   3.754   3.764   3.967   4.043   4.092   4.119
  4.228   4.935   4.970   5.005   5.174   5.268   5.397   5.448
  5.863   5.900  23.635  23.778  23.810  24.248  49.810  49.885
 50.000
 --------------------------------------------------------------
 
          Ground-State Mulliken Net Atomic Charges

     Atom                 Charge (a.u.)    Spin (a.u.)
  --------------------------------------------------------
      1 O                    -0.095984      -0.022176
      2 C                     0.376650       0.033395
      3 C                    -0.403925      -0.011649
      4 O                    -0.297094      -0.043122
      5 O                    -0.050355      -0.012431
      6 C                     0.499527       0.029076
      7 C                    -0.625020       0.015808
      8 Li                   -0.150157       0.981169
      9 H                     0.208156       0.019292
     10 H                     0.215176       0.010870
     11 H                     0.154253       0.001017
     12 H                     0.168772      -0.001249
  --------------------------------------------------------
  Sum of atomic charges =     0.000000
  Sum of spin   charges =     1.000000

 -----------------------------------------------------------------
                    Cartesian Multipole Moments
 -----------------------------------------------------------------
    Charge (ESU x 10^10)
                 0.0000
    Dipole Moment (Debye)
         X      -5.2725      Y       6.5220      Z      -0.8977
       Tot       8.4345
    Quadrupole Moments (Debye-Ang)
        XX     -48.5566     XY     -13.2973     YY     -23.8744
        XZ      -0.5192     YZ      -0.3342     ZZ     -52.6306
    Octopole Moments (Debye-Ang^2)
       XXX      -6.7723    XXY    -108.8005    XYY     -63.4890
       YYY    -286.3740    XXZ      25.2543    XYZ       7.9186
       YYZ      14.5227    XZZ      -0.6958    YZZ    -131.9684
       ZZZ      79.8426
    Hexadecapole Moments (Debye-Ang^3)
      XXXX    -670.5474   XXXY     313.4968   XXYY    -541.8548
      XYYY      45.6095   YYYY   -2739.1364   XXXZ     -93.3199
      XXYZ     129.6315   XYYZ      17.4681   YYYZ     274.6773
      XXZZ    -200.8867   XYZZ     103.7546   YYZZ    -564.9004
      XZZZ     -77.5986   YZZZ     358.8131   ZZZZ    -452.8471
 -----------------------------------------------------------------
[HyperChem begin]
;Total dipole moment in Debye
[dipole-moment]
      8.434514304188
;Dipole moment components in Debye
[dipole-moment-components]
     -5.272488188466      6.521961675233     -0.897728108523
[HyperChem end]
[HyperChem begin]
[HyperChem end]
[HyperChem begin]
[HyperChem end]
[HyperChem begin]
[HyperChem end]
Archival summary:
1\1\nid01046\OPT\ProcedureUnspecified\BasisUnspecified\34i14(2)\jself\MonJan2923:51:552018MonJan2923:51:552018\0\\#,OPT,ProcedureUnspecified,BasisUnspecified,\\0,2\O\C,1,1.3481\O,2,1.20636,1,123.2\O,2,1.33191,1,111.727,3,-178.405,0\C,1,1.39927,2,109.591,3,177.989,0\C,5,1.32107,1,122.234,2,-178.398,0\H,6,1.08134,5,121.296,1,0.306371,0\H,6,1.08155,5,119.825,1,-179.701,0\C,4,1.45294,2,109.698,1,-1.54895,0\H,9,1.08946,4,108.345,2,123.109,0\H,9,1.09085,4,107.992,2,-117.407,0\Li,3,1.92339,2,137.016,1,-178.199,0\\\@

 Total job time:  361.26s(wall), 369.21s(cpu) 
 Mon Jan 29 23:51:55 2018

        *************************************************************
        *                                                           *
        *  Thank you very much for using Q-Chem.  Have a nice day.  *
        *                                                           *
        *************************************************************


0 sent ACK to 0 
now end server 0 ... 
 
*************************************************************
Job 5 of 5 
*************************************************************
 
Process 1 of 12 is on nid01046 - thread support 0
Process 3 of 12 is on nid01046 - thread support 0
Process 5 of 12 is on nid01046 - thread support 0
Process 0 of 12 is on nid01046 - thread support 0
Process 6 of 12 is on nid01046 - thread support 0
Process 2 of 12 is on nid01046 - thread support 0
Process 4 of 12 is on nid01046 - thread support 0
Process 11 of 12 is on nid01046 - thread support 0
initial socket setup ...start
initial socket setup ...done 
now start server 0 ... 
nid01046 10.128.4
Q-Chem Developer Version! Running on 10.128.4.*
                  Welcome to Q-Chem
     A Quantum Leap Into The Future Of Chemistry


 Q-Chem 5.0 (beta), Q-Chem, Inc., Pleasanton, CA (2017)

 Yihan Shao,  Zhengting Gan,  E. Epifanovsky,  A. T. B. Gilbert,  M. Wormit,  
 J. Kussmann,  A. W. Lange,  A. Behn,  Jia Deng,  Xintian Feng,  D. Ghosh,  
 M. Goldey,  P. R. Horn,  L. D. Jacobson,  I. Kaliman,  R. Z. Khaliullin,  
 T. Kus,  A. Landau,  Jie Liu,  E. I. Proynov,  Y. M. Rhee,  R. M. Richard,  
 M. A. Rohrdanz,  R. P. Steele,  E. J. Sundstrom,  H. L. Woodcock III,  
 P. M. Zimmerman,  D. Zuev,  B. Albrecht,  E. Alguire,  B. Austin,  
 S. A. Baeppler,  Z. Benda,  G. J. O. Beran,  Y. A. Bernard,  E. J. Berquist,  
 K. Brandhorst,  K. B. Bravaya,  S. T. Brown,  D. Casanova,  Chun-Min Chang,  
 Yunqing Chen,  Siu Hung Chien,  K. D. Closser,  M. P. Coons,  
 D. L. Crittenden,  S. Dasgupta,  M. Diedenhofen,  R. A. DiStasio Jr.,  
 Hainam Do,  A. D. Dutoi,  R. G. Edgar,  Po-Tung Fang,  S. Fatehi,  
 Qingguo Feng,  L. Fusti-Molnar,  Qinghui Ge,  A. Ghysels,  
 A. Golubeva-Zadorozhnaya,  J. Gomes,  J. Gonthier,  A. Gunina,  
 M. W. D. Hanson-Heine,  P. H. P. Harbach,  A. W. Hauser,  J. E. Herr,  
 E. G. Hohenstein,  Z. C. Holden,  Kerwin Hui,  T.-C. Jagau,  Hyunjun Ji,  
 B. Kaduk,  K. Khistyaev,  Jaehoon Kim,  Jihan Kim,  R. A. King,  
 P. Klunzinger,  K. Koh,  D. Kosenkov,  T. Kowalczyk,  C. M. Krauter,  
 A. Kunitsa,  Ka Un Lao,  A. Laurent,  K. V. Lawler,  Joonho Lee,  
 D. Lefrancois,  S. Lehtola,  S. V. Levchenko,  D. S. Levine,  Yi-Pei Li,  
 Ching Yeh Lin,  You-Sheng Lin,  Fenglai Liu,  E. Livshits,  R. C. Lochan,  
 A. Luenser,  P. Manohar,  E. Mansoor,  S. F. Manzer,  Shan-Ping Mao,  
 Yuezhi Mao,  N. Mardirossian,  A. V. Marenich,  L. A. Martinez-Martinez,  
 S. A. Maurer,  N. J. Mayhall,  J.-M. Mewes,  A. F. Morrison,  K. Nanda,  
 T. S. Nguyen-Beck,  C. M. Oana,  R. Olivares-Amaya,  D. P. O'Neill,  
 J. A. Parkhill,  T. M. Perrine,  R. Peverati,  P. A. Pieniazek,  F. Plasser,  
 S. Prager,  A. Prociuk,  D. R. Rehn,  F. Rob,  E. Rosta,  N. J. Russ,  
 N. Sergueev,  S. M. Sharada,  S. Sharma,  D. W. Small,  A. Sodt,  T. Stauch,  
 T. Stein,  D. Stuck,  Yu-Chuan Su,  A. J. W. Thom,  T. Tsuchimochi,  
 V. Vanovschi,  L. Vogt,  O. Vydrov,  Tao Wang,  M. A. Watson,  J. Wenzel,  
 T. A. Wesolowski,  A. White,  C. F. Williams,  J. Witte,  Jun Yang,  K. Yao,  
 S. Yeganeh,  S. R. Yost,  Zhi-Qiang You,  A. Zech,  Igor Ying Zhang,  
 Xing Zhang,  Yan Zhao,  Ying Zhu,  B. R. Brooks,  G. K. L. Chan,  
 D. M. Chipman,  C. J. Cramer,  W. A. Goddard III,  M. S. Gordon,  
 W. J. Hehre,  A. Klamt,  H. F. Schaefer III,  M. W. Schmidt,  
 C. D. Sherrill,  D. G. Truhlar,  A. Warshel,  X. Xu,  A. Aspuru-Guzik,  
 R. Baer,  A. T. Bell,  N. A. Besley,  J.-D. Chai,  A. Dreuw,  B. D. Dunietz,  
 T. R. Furlani,  S. R. Gwaltney,  C.-P. Hsu,  Y. Jung,  J. Kong,  
 D. S. Lambrecht,  W. Liang,  C. Ochsenfeld,  V. A. Rassolov,  
 L. V. Slipchenko,  J. E. Subotnik,  T. Van Voorhis,  J. M. Herbert,  
 A. I. Krylov,  P. M. W. Gill,  M. Head-Gordon

 Contributors to earlier versions of Q-Chem not listed above: 
 R. D. Adamson,  J. Baker,  E. F. C. Byrd,  A. K. Chakraborty,  C.-L. Cheng,  
 H. Dachsel,  R. J. Doerksen,  G. Hawkins,  A. Heyden,  S. Hirata,  
 G. Kedziora,  F. J. Keil,  C. Kelley,  P. P. Korambath,  W. Kurlancheek,  
 A. M. Lee,  M. S. Lee,  D. Liotard,  I. Lotan,  P. E. Maslen,  N. Nair,  
 D. Neuhauser,  R. Olson,  B. Peters,  J. Ritchie,  N. E. Schultz,  
 N. Shenvi,  A. C. Simmonett,  K. S. Thanthiriwatte,  Q. Wu,  W. Zhang

 Please cite Q-Chem as follows:
 Y. Shao et al., Mol. Phys. 113, 184-215 (2015)
 DOI: 10.1080/00268976.2014.952696

 Q-Chem 4.4.2 for Intel X86 EM64T Linux

 Parts of Q-Chem use Armadillo 5.200.1 (Boston Tea Smuggler).
 http://arma.sourceforge.net/

 Q-Chem begins on Mon Jan 29 23:52:00 2018  

Host: nid01046
0

     Scratch files written to /dev/shm/eg_qchem/qchem39107.0//
 Parallel job on  12  processors
The previous job contains 0 fragments, simply inherited here
Symmetry turned off for PCM calculation

Checking the input file for inconsistencies... 	...done.

--------------------------------------------------------------
User input:
--------------------------------------------------------------

$molecule
read
$end

$rem
   BASIS  =  6-311++G**
   GUI  =  2
   JOB_TYPE  =  Frequency
   METHOD  =  B3LYP
   SYM_IGNORE = true
   SOLVENT_METHOD = PCM
$end

$pcm
  heavypoints   194
      hpoints   194
        radii   uff
       theory   cpcm
     vdwscale   1.1
$end

$solvent
  dielectric  10.0
$end
--------------------------------------------------------------
 ----------------------------------------------------------------
             Standard Nuclear Orientation (Angstroms)
    I     Atom           X                Y                Z
 ----------------------------------------------------------------
    1      O      -0.6428109545     2.6157771184     0.3409035446
    2      C       0.2042895474     2.6051481373    -0.6868625521
    3      C      -1.5863309025     3.7098426717     0.1865926993
    4      O       1.1003752687     1.8117350005    -0.8379719308
    5      O      -0.0776738776     3.5784043356    -1.5760496107
    6      C      -1.1939843068     4.3017000373    -1.1416999198
    7      C      -1.7056932895     5.2968146856    -1.8439245724
    8      Li      1.8102335462     0.2941608185     0.1067436814
    9      H      -1.4474400198     4.3951778176     1.0238417651
   10      H      -2.5946174127     3.2973823047     0.1987776091
   11      H      -1.2804725134     5.5909968247    -2.7936356421
   12      H      -2.5668750856     5.8328602482    -1.4687150716
 ----------------------------------------------------------------
 Nuclear Repulsion Energy =   321.7465778578 hartrees
 There are       28 alpha and       27 beta electrons
 Requested basis set is 6-311++G(d,p)
 There are 68 shells and 204 basis functions

 Total QAlloc Memory Limit   2000 MB
 Mega-Array Size        61 MB
 MEM_STATIC part        62 MB
 Discretize the solute cavity surface with Lebedev spheres
	Using 194 Lebedev grid points for each H atom
	Using 194 Lebedev grid points for other atoms
	Atomic van der Waals radii will be scaled by 1.10
 Remove points where switching function is < 1.0e-08
 Keep 1138 surface tesserae and discard 1190 interior tesserae
 Molecular Surface Area = 154.190 Angst**2

                       Distance Matrix (Angstroms)
             O (  1)   C (  2)   C (  3)   O (  4)   O (  5)   C (  6)
   C (  2)  1.331914
   C (  3)  1.452935  2.278068
   O (  4)  2.252760  1.206362  3.445422
   O (  5)  2.218274  1.348104  2.323839  2.248039
   C (  6)  2.311761  2.245069  1.506185  3.399450  1.399273
   C (  7)  3.618170  3.497413  2.579870  4.586038  2.382255  1.321067
   Li(  8)  3.385581  2.923958  4.817666  1.923387  4.145147  5.161812
   H (  9)  2.068840  2.976395  1.090853  4.078221  3.050051  2.182326
   H ( 10)  2.072277  3.016194  1.089456  4.115212  3.092570  2.183416
   H ( 11)  4.368510  3.944402  3.537520  4.876051  2.641925  2.097298
   H ( 12)  4.162495  4.325364  2.865085  5.478687  3.360091  2.082359
             C (  7)   Li(  8)   H (  9)   H ( 10)   H ( 11)
   Li(  8)  6.418208
   H (  9)  3.017238  5.317128
   H ( 10)  2.993417  5.332028  1.789386
   H ( 11)  1.081345  6.783888  4.003873  3.992766
   H ( 12)  1.081555  7.233142  3.087540  3.034790  1.862456
 
 A cutoff of  1.0D-11 yielded   2187 shell pairs
 There are     20197 function pairs (     21815 Cartesian)
 Smallest overlap matrix eigenvalue = 8.78E-06
 Guess from superposition of atomic densities
 Warning:  Energy on first SCF cycle will be non-variational
 An unrestricted hybrid HF-DFT SCF calculation will be
 performed using Pulay DIIS extrapolation
 Polarizable Continuum solvation model will be applied
 Exchange:     0.2000 Hartree-Fock + 0.0800 Slater + 0.7200 B88
 Correlation:  0.1900 VWN1RPA + 0.8100 LYP
 Using SG-1 standard quadrature grid
 SCF converges when DIIS error is below 1.0E-08
 -------------------------------------------------------
 OpenMP Integral computing Module                
 -------------------------------------------------------
 ---------------------------------------
  Cycle       Energy         DIIS Error
 ---------------------------------------
    1    -389.6105936070      4.45E-02
    2    -387.8654797261      7.39E-03
    3    -387.4459547027      1.20E-02
    4    -388.1175077909      1.55E-03
    5    -388.1241159347      8.73E-04
    6    -388.1272638567      2.92E-04
    7    -388.1277672555      1.05E-04
    8    -388.1279432003      1.00E-04
    9    -388.1280922846      6.65E-05
   10    -388.1282424371      4.09E-05
   11    -388.1283599561      3.06E-05
   12    -388.1284369823      2.19E-05
   13    -388.1284924097      1.51E-05
   14    -388.1285308579      1.57E-05
   15    -388.1285520429      6.52E-06
   16    -388.1285577485      5.53E-06
   17    -388.1285663495      4.28E-06
   18    -388.1285717144      3.29E-06
   19    -388.1285754055      1.95E-06
   20    -388.1285677284      4.75E-06
   21    -388.1285756738      4.76E-06
   22    -388.1285743533      6.17E-06
   23    -388.1285696342      6.15E-06
   24    -388.1285613451      1.46E-05
   25    -388.1285683974      1.46E-05
   26    -388.1285672279      1.46E-05
   27    -388.1285807745      1.46E-05
   28    -388.1285720452      1.49E-05
   29    -388.1285939478      1.52E-05
   30    -388.1285921998      1.60E-05
   31    -388.1285685594      6.03E-06
   32    -388.1285077402      1.90E-05
   33    -388.1285429883      1.22E-05
   34    -388.1285557560      9.46E-06
   35    -388.1285564182      1.01E-05
   36    -388.1284870622      2.40E-05
   37    -388.1284621528      2.44E-05
   38    -388.1284947387      2.47E-05
   39    -388.1285028805      2.44E-05
   40    -388.1285986420      6.60E-05
   41    -388.1285152597      1.83E-05
   42    -388.1284990319      1.80E-05
   43    -388.1287204039      2.08E-04
   44    -388.1287249607      2.09E-04
   45    -388.1287409113      2.10E-04
   46    -388.1291134109      7.84E-04
   47    -388.1291172190      7.85E-04
   48    -388.1280956720      7.14E-04
   49    -388.1251251968      1.62E-03
   50    -388.1345906073      2.96E-03    Convergence failure

 Q-Chem fatal error occurred in module /project/projectdirs/jcesr/qchem/qc5.x/qc500/compile/cori/qc_src/scfman/scfman.C, line 5024:

 SCF failed to converge

