
Running Job 1 of 1 mol.qin
qchem mol.qin_8767.0 /tmp/scratch/ 0
/clusterfs/mp/software/qchem6.0/exe/qcprog.exe_s mol.qin_8767.0 /tmp/scratch/
                  Welcome to Q-Chem
     A Quantum Leap Into The Future Of Chemistry


 Q-Chem 6.0, Q-Chem, Inc., Pleasanton, CA (2022)

 E. Epifanovsky,  A. T. B. Gilbert,  Xintian Feng,  Joonho Lee,  Yuezhi Mao,  
 N. Mardirossian,  P. Pokhilko,  A. White,  M. Wormit,  M. P. Coons,  
 A. L. Dempwolff,  Zhengting Gan,  D. Hait,  P. R. Horn,  L. D. Jacobson,  
 I. Kaliman,  J. Kussmann,  A. W. Lange,  Ka Un Lao,  D. S. Levine,  Jie Liu,  
 S. C. McKenzie,  A. F. Morrison,  K. Nanda,  F. Plasser,  D. R. Rehn,  
 M. L. Vidal,  Zhi-Qiang You,  Ying Zhu,  B. Alam,  B. Albrecht,  
 A. Aldossary,  E. Alguire,  J. H. Andersen,  V. Athavale,  D. Barton,  
 K. Begam,  A. Behn,  N. Bellonzi,  Y. A. Bernard,  E. J. Berquist,  
 H. Burton,  A. Carreras,  K. Carter-Fenk,  Romit Chakraborty,  
 Chandrima Chakravarty,  Junhan Chen,  A. D. Chien,  K. D. Closser,  
 V. Cofer-Shabica,  L. Cunha,  S. Dasgupta,  Jia Deng,  M. de Wergifosse,  
 M. Diedenhofen,  Hainam Do,  S. Ehlert,  Po-Tung Fang,  S. Fatehi,  
 Qingguo Feng,  T. Friedhoff,  B. Ganoe,  J. Gayvert,  Qinghui Ge,  
 G. Gidofalvi,  M. Goldey,  J. Gomes,  C. Gonzalez-Espinoza,  S. Gulania,  
 A. Gunina,  J. A. Gyamfi,  M. W. D. Hanson-Heine,  P. H. P. Harbach,  
 A. W. Hauser,  M. F. Herbst,  M. Hernandez Vera,  M. Hodecker,  
 Z. C. Holden,  S. Houck,  Xunkun Huang,  Kerwin Hui,  B. C. Huynh,  
 K. Ikeda,  M. Ivanov,  Hyunjun Ji,  Zuxin Jin,  Hanjie Jiang,  B. Kaduk,  
 S. Kaehler,  R. Kang,  K. Khistyaev,  Jaehoon Kim,  Yongbin Kim,  
 P. Klunzinger,  Z. Koczor-Benda,  Joong Hoon Koh,  D. Kosenkov,  
 Saikiran Kotaru,  L. Koulias,  T. Kowalczyk,  C. M. Krauter,  K. Kue,  
 A. Kunitsa,  T. Kus,  A. Landau,  K. V. Lawler,  D. Lefrancois,  S. Lehtola,  
 Rain Li,  Shaozhi Li,  Yi-Pei Li,  Jiashu Liang,  M. Liebenthal,  
 Hung-Hsuan Lin,  You-Sheng Lin,  Fenglai Liu,  Kuan-Yu Liu,  
 M. Loipersberger,  A. Luenser,  C. Malbon,  A. Manjanath,  P. Manohar,  
 E. Mansoor,  S. F. Manzer,  Shan-Ping Mao,  A. V. Marenich,  T. Markovich,  
 S. Mason,  F. Matz,  S. A. Maurer,  P. F. McLaughlin,  M. F. S. J. Menger,  
 J.-M. Mewes,  S. A. Mewes,  P. Morgante,  Mohammad Mostafanejad,  
 J. W. Mullinax,  K. J. Oosterbaan,  G. Paran,  V. Parravicini,  
 Alexander C. Paul,  Suranjan K. Paul,  F. Pavosevic,  Zheng Pei,  S. Prager,  
 E. I. Proynov,  E. Ramos,  B. Rana,  A. E. Rask,  A. Rettig,  R. M. Richard,  
 F. Rob,  E. Rossomme,  T. Scheele,  M. Scheurer,  M. Schneider,  
 P. E. Schneider,  N. Sergueev,  S. M. Sharada,  Hengyuan Shen,  
 W. Skomorowski,  D. W. Small,  C. J. Stein,  Yingli Su,  Yu-Chuan Su,  
 E. J. Sundstrom,  Zhen Tao,  J. Thirman,  Hung-Yi Tsai,  T. Tsuchimochi,  
 N. M. Tubman,  C. Utku,  S. P. Veccham,  O. Vydrov,  J. Wenzel,  
 Jonathan Wong,  J. Witte,  A. Yamada,  Chou-Hsun Yang,  Kun Yao,  
 S. Yeganeh,  S. R. Yost,  A. Zech,  F. Zeller,  Igor Ying Zhang,  
 Xing Zhang,  Yu Zhang,  D. Zuev,  A. Aspuru-Guzik,  A. T. Bell,  
 N. A. Besley,  K. B. Bravaya,  B. R. Brooks,  D. Casanova,  Jeng-Da Chai,  
 Hsing-Ta Chen,  S. Coriani,  C. J. Cramer,  A. E. DePrince, III,  
 R. A. DiStasio Jr.,  A. Dreuw,  B. D. Dunietz,  T. R. Furlani,  
 W. A. Goddard III,  S. Grimme,  S. Hammes-Schiffer,  T. Head-Gordon,  
 W. J. Hehre,  Chao-Ping Hsu,  T.-C. Jagau,  Yousung Jung,  A. Klamt,  
 Jing Kong,  D. S. Lambrecht,  Xiangyuan Li,  WanZhen Liang,  N. J. Mayhall,  
 C. W. McCurdy,  J. B. Neaton,  T. Neudecker,  C. Ochsenfeld,  
 J. A. Parkhill,  R. Peverati,  V. A. Rassolov,  Haisheng Ren,  Yihan Shao,  
 L. V. Slipchenko,  R. P. Steele,  J. E. Subotnik,  A. J. W. Thom,  
 A. Tkatchenko,  D. G. Truhlar,  T. Van Voorhis,  Fan Wang,  
 T. A. Wesolowski,  K. B. Whaley,  H. L. Woodcock III,  P. M. Zimmerman,  
 S. Faraji,  P. M. W. Gill,  M. Head-Gordon,  J. M. Herbert,  A. I. Krylov

 Contributors to earlier versions of Q-Chem not listed above: 
 R. D. Adamson,  B. Austin,  R. Baer,  J. Baker,  G. J. O. Beran,  
 K. Brandhorst,  S. T. Brown,  E. F. C. Byrd,  Arup K. Chakraborty,  
 G. K. L. Chan,  Chun-Min Chang,  Yunqing Chen,  C.-L. Cheng,  
 Siu Hung Chien,  D. M. Chipman,  D. L. Crittenden,  H. Dachsel,  
 R. J. Doerksen,  A. D. Dutoi,  R. G. Edgar,  J. Fosso-Tande,  
 L. Fusti-Molnar,  D. Ghosh,  A. Ghysels,  A. Golubeva-Zadorozhnaya,  
 J. Gonthier,  M. S. Gordon,  S. R. Gwaltney,  G. Hawkins,  J. E. Herr,  
 A. Heyden,  S. Hirata,  E. G. Hohenstein,  G. Kedziora,  F. J. Keil,  
 C. Kelley,  Jihan Kim,  R. A. King,  R. Z. Khaliullin,  P. P. Korambath,  
 W. Kurlancheek,  A. Laurent,  A. M. Lee,  M. S. Lee,  S. V. Levchenko,  
 Ching Yeh Lin,  D. Liotard,  E. Livshits,  R. C. Lochan,  I. Lotan,  
 L. A. Martinez-Martinez,  P. E. Maslen,  N. Nair,  D. P. O'Neill,  
 D. Neuhauser,  E. Neuscamman,  C. M. Oana,  R. Olivares-Amaya,  R. Olson,  
 T. M. Perrine,  B. Peters,  P. A. Pieniazek,  A. Prociuk,  Y. M. Rhee,  
 J. Ritchie,  M. A. Rohrdanz,  E. Rosta,  N. J. Russ,  H. F. Schaefer III,  
 M. W. Schmidt,  N. E. Schultz,  S. Sharma,  N. Shenvi,  C. D. Sherrill,  
 A. C. Simmonett,  A. Sodt,  T. Stein,  D. Stuck,  K. S. Thanthiriwatte,  
 V. Vanovschi,  L. Vogt,  Tao Wang,  A. Warshel,  M. A. Watson,  
 C. F. Williams,  Q. Wu,  X. Xu,  Jun Yang,  W. Zhang,  Yan Zhao

   Please cite Q-Chem as follows:
  "Software for the frontiers of quantum chemistry:
   An overview of developments in the Q-Chem 5 package"
   J. Chem. Phys. 155, 084801 (2021)
   https://doi.org/10.1063/5.0055522 (open access)

 Q-Chem 6.0.0 for Intel X86 EM64T Linux

 Parts of Q-Chem use Armadillo 9.900.5 (Nocturnal Misbehaviour).
 http://arma.sourceforge.net/

 Q-Chem begins on Wed Jul 13 01:41:52 2022  

 Host: 
0

     Scratch files written to /tmp/scratch//
 Jul222 |scratch|qcdevops|jenkins|workspace|build_RNUM -1
 Processing $rem in /clusterfs/mp/software/qchem6.0/config/preferences:
 Processing $rem in /global/home/users/smblau/.qchemrc:
 Symmetry turned off for PCM/SM12/SMD calculation

 Checking the input file for inconsistencies... 	...done.

--------------------------------------------------------------
User input:
--------------------------------------------------------------
$molecule
0 2
S      1.3809392217     -0.3164532506      0.4623393036
C      1.3060082591     -1.9538947097     -0.2172976973
C      0.8030526290     -3.0131534635      0.5296225250
H      0.5787272576     -2.8884218093      1.5787468186
C      0.5576837663     -4.2265193296     -0.1051694890
H      0.1629670546     -5.0568050614      0.4678591859
C      0.7902220481     -4.3640226028     -1.4682894097
H      0.5940828466     -5.3104499450     -1.9575515952
C      1.2598186906     -3.2886036146     -2.2103397922
H      1.4189711797     -3.3862822661     -3.2763403939
C      1.5184252297     -2.0704969226     -1.5905011127
H      1.8550784539     -1.2207022552     -2.1706354175
C      1.4059409684     -0.2244195430      2.2737418536
C      0.8693831884      0.9859400798      2.6741874581
C      0.8781319793      1.1154920641      4.0779284531
H      0.4936375972      2.0281361657      4.5335108252
C      1.3364353597      0.1185222455      4.9367357688
H      1.2972763295      0.2616182672      6.0125353981
C      1.8613906461     -1.0695638623      4.4280124415
H      2.2430016305     -1.8332697580      5.0970435435
C      1.9184033932     -1.2586642037      3.0564902629
H      2.3657999718     -2.1516685577      2.6333964406
C      3.0521874220      0.2681517051      0.0453507029
C      4.0591166993     -0.5444068219     -0.4511334471
H      3.9105496429     -1.6096984130     -0.5619965763
C      5.2829338041      0.0335231586     -0.7695587085
H      6.0804635850     -0.5917456613     -1.1524572033
C      5.4845725594      1.3947732239     -0.5876697451
H      6.4459907985      1.8299783881     -0.8331331220
C      4.4645368253      2.1921534820     -0.0821904106
H      4.6198883862      3.2539375591      0.0619495312
C      3.2352115287      1.6334861597      0.2342145264
H      2.4179587239      2.2289717232      0.6252173255
S     -1.2792928202      0.4282503665     -0.2026953288
C     -1.9377106587     -0.6970578944     -1.3929519287
C     -2.0748635064     -0.4789555451     -2.7671171805
H     -1.8259204430      0.4790114550     -3.2007239951
C     -2.5572668296     -1.4965639346     -3.5692011180
H     -2.6468576487     -1.3231734848     -4.6344418722
C     -2.9181003692     -2.7336223156     -3.0168552978
H     -3.2879894032     -3.5294459208     -3.6528233985
C     -2.8069583878     -2.9307553294     -1.6477639686
H     -3.0992585774     -3.8778369741     -1.2087217642
C     -2.3346117962     -1.9217154876     -0.8202248598
H     -2.2368224167     -2.0756926523      0.2471709950
C     -2.8401111321      0.9501368906      0.7511685575
C     -2.9903790674      0.3118818439      1.9695766580
H     -2.2028595845     -0.3390443400      2.3395792732
C     -4.1405023518      0.5579643740      2.7128829996
H     -4.2729091241      0.0729217393      3.6729648220
C     -5.0982650953      1.4413986465      2.2342472160
H     -5.9850688857      1.6428588485      2.8239372071
C     -4.9291966164      2.0661201134      1.0004408470
H     -5.6838294445      2.7506261810      0.6300462838
C     -3.7954755053      1.8124621183      0.2410748263
H     -3.6697163085      2.2563139847     -0.7400716562
C     -0.8116559037      1.9141202307     -1.0399800654
C      0.0085774112      1.8231989433     -2.1696383535
H      0.2450297853      0.8582003991     -2.5965398529
C      0.5465221005      2.9737784420     -2.7177053795
H      1.1666446168      2.9018260624     -3.6025392638
C      0.3178333384      4.2140401487     -2.1192766553
H      0.7577647772      5.1141839951     -2.5315539222
C     -0.4354510208      4.2856913113     -0.9546291743
H     -0.5867746085      5.2381719367     -0.4605214558
C     -1.0007013091      3.1460383721     -0.4023821600
H     -1.5426088908      3.1992253053      0.5306487214
$end

$rem
job_type = opt
basis = def2-svpd
max_scf_cycles = 100
gen_scfman = true
xc_grid = 3
thresh = 14
s2thresh = 16
scf_algorithm = diis
resp_charges = true
symmetry = false
sym_ignore = true
method = b97m-v
geom_opt_max_cycles = 200
solvent_method = pcm
$end

$pcm
heavypoints 194
hpoints 194
radii uff
theory cpcm
vdwscale 1.1
$end

$solvent
dielectric 3.0
$end

$geom_opt
coordinates = redundant
maxiter = 200
$end
--------------------------------------------------------------
 ----------------------------------------------------------------
             Standard Nuclear Orientation (Angstroms)
    I     Atom           X                Y                Z
 ----------------------------------------------------------------
    1      S       1.3809392217    -0.3164532506     0.4623393036
    2      C       1.3060082591    -1.9538947097    -0.2172976973
    3      C       0.8030526290    -3.0131534635     0.5296225250
    4      H       0.5787272576    -2.8884218093     1.5787468186
    5      C       0.5576837663    -4.2265193296    -0.1051694890
    6      H       0.1629670546    -5.0568050614     0.4678591859
    7      C       0.7902220481    -4.3640226028    -1.4682894097
    8      H       0.5940828466    -5.3104499450    -1.9575515952
    9      C       1.2598186906    -3.2886036146    -2.2103397922
   10      H       1.4189711797    -3.3862822661    -3.2763403939
   11      C       1.5184252297    -2.0704969226    -1.5905011127
   12      H       1.8550784539    -1.2207022552    -2.1706354175
   13      C       1.4059409684    -0.2244195430     2.2737418536
   14      C       0.8693831884     0.9859400798     2.6741874581
   15      C       0.8781319793     1.1154920641     4.0779284531
   16      H       0.4936375972     2.0281361657     4.5335108252
   17      C       1.3364353597     0.1185222455     4.9367357688
   18      H       1.2972763295     0.2616182672     6.0125353981
   19      C       1.8613906461    -1.0695638623     4.4280124415
   20      H       2.2430016305    -1.8332697580     5.0970435435
   21      C       1.9184033932    -1.2586642037     3.0564902629
   22      H       2.3657999718    -2.1516685577     2.6333964406
   23      C       3.0521874220     0.2681517051     0.0453507029
   24      C       4.0591166993    -0.5444068219    -0.4511334471
   25      H       3.9105496429    -1.6096984130    -0.5619965763
   26      C       5.2829338041     0.0335231586    -0.7695587085
   27      H       6.0804635850    -0.5917456613    -1.1524572033
   28      C       5.4845725594     1.3947732239    -0.5876697451
   29      H       6.4459907985     1.8299783881    -0.8331331220
   30      C       4.4645368253     2.1921534820    -0.0821904106
   31      H       4.6198883862     3.2539375591     0.0619495312
   32      C       3.2352115287     1.6334861597     0.2342145264
   33      H       2.4179587239     2.2289717232     0.6252173255
   34      S      -1.2792928202     0.4282503665    -0.2026953288
   35      C      -1.9377106587    -0.6970578944    -1.3929519287
   36      C      -2.0748635064    -0.4789555451    -2.7671171805
   37      H      -1.8259204430     0.4790114550    -3.2007239951
   38      C      -2.5572668296    -1.4965639346    -3.5692011180
   39      H      -2.6468576487    -1.3231734848    -4.6344418722
   40      C      -2.9181003692    -2.7336223156    -3.0168552978
   41      H      -3.2879894032    -3.5294459208    -3.6528233985
   42      C      -2.8069583878    -2.9307553294    -1.6477639686
   43      H      -3.0992585774    -3.8778369741    -1.2087217642
   44      C      -2.3346117962    -1.9217154876    -0.8202248598
   45      H      -2.2368224167    -2.0756926523     0.2471709950
   46      C      -2.8401111321     0.9501368906     0.7511685575
   47      C      -2.9903790674     0.3118818439     1.9695766580
   48      H      -2.2028595845    -0.3390443400     2.3395792732
   49      C      -4.1405023518     0.5579643740     2.7128829996
   50      H      -4.2729091241     0.0729217393     3.6729648220
   51      C      -5.0982650953     1.4413986465     2.2342472160
   52      H      -5.9850688857     1.6428588485     2.8239372071
   53      C      -4.9291966164     2.0661201134     1.0004408470
   54      H      -5.6838294445     2.7506261810     0.6300462838
   55      C      -3.7954755053     1.8124621183     0.2410748263
   56      H      -3.6697163085     2.2563139847    -0.7400716562
   57      C      -0.8116559037     1.9141202307    -1.0399800654
   58      C       0.0085774112     1.8231989433    -2.1696383535
   59      H       0.2450297853     0.8582003991    -2.5965398529
   60      C       0.5465221005     2.9737784420    -2.7177053795
   61      H       1.1666446168     2.9018260624    -3.6025392638
   62      C       0.3178333384     4.2140401487    -2.1192766553
   63      H       0.7577647772     5.1141839951    -2.5315539222
   64      C      -0.4354510208     4.2856913113    -0.9546291743
   65      H      -0.5867746085     5.2381719367    -0.4605214558
   66      C      -1.0007013091     3.1460383721    -0.4023821600
   67      H      -1.5426088908     3.1992253053     0.5306487214
 ----------------------------------------------------------------
 Nuclear Repulsion Energy =        4578.27100941 hartrees
 There are      139 alpha and      138 beta electrons
 Requested basis set is def2-SVPD
 There are 426 shells and 1006 basis functions

 Total QAlloc Memory Limit  90000 MB
 Mega-Array Size       188 MB
 MEM_STATIC part       192 MB

 -----------------------------------------------------------------------
                STARTING GEOMETRY OPTIMIZER USING LIBOPT3
                by Peter F. McLaughlin, Yu Zhang, Evgeny Epifanovsky
 -----------------------------------------------------------------------

              Initial Energy and Gradient Calculation
  Checking Topology for Ill-Behaving Coordinates
  Done Checking Topology
 ----------------------------------------------------------------
             Standard Nuclear Orientation (Angstroms)
    I     Atom           X                Y                Z
 ----------------------------------------------------------------
    1      S       1.3809392217    -0.3164532506     0.4623393036
    2      C       1.3060082591    -1.9538947097    -0.2172976973
    3      C       0.8030526290    -3.0131534635     0.5296225250
    4      H       0.5787272576    -2.8884218093     1.5787468186
    5      C       0.5576837663    -4.2265193296    -0.1051694890
    6      H       0.1629670546    -5.0568050614     0.4678591859
    7      C       0.7902220481    -4.3640226028    -1.4682894097
    8      H       0.5940828466    -5.3104499450    -1.9575515952
    9      C       1.2598186906    -3.2886036146    -2.2103397922
   10      H       1.4189711797    -3.3862822661    -3.2763403939
   11      C       1.5184252297    -2.0704969226    -1.5905011127
   12      H       1.8550784539    -1.2207022552    -2.1706354175
   13      C       1.4059409684    -0.2244195430     2.2737418536
   14      C       0.8693831884     0.9859400798     2.6741874581
   15      C       0.8781319793     1.1154920641     4.0779284531
   16      H       0.4936375972     2.0281361657     4.5335108252
   17      C       1.3364353597     0.1185222455     4.9367357688
   18      H       1.2972763295     0.2616182672     6.0125353981
   19      C       1.8613906461    -1.0695638623     4.4280124415
   20      H       2.2430016305    -1.8332697580     5.0970435435
   21      C       1.9184033932    -1.2586642037     3.0564902629
   22      H       2.3657999718    -2.1516685577     2.6333964406
   23      C       3.0521874220     0.2681517051     0.0453507029
   24      C       4.0591166993    -0.5444068219    -0.4511334471
   25      H       3.9105496429    -1.6096984130    -0.5619965763
   26      C       5.2829338041     0.0335231586    -0.7695587085
   27      H       6.0804635850    -0.5917456613    -1.1524572033
   28      C       5.4845725594     1.3947732239    -0.5876697451
   29      H       6.4459907985     1.8299783881    -0.8331331220
   30      C       4.4645368253     2.1921534820    -0.0821904106
   31      H       4.6198883862     3.2539375591     0.0619495312
   32      C       3.2352115287     1.6334861597     0.2342145264
   33      H       2.4179587239     2.2289717232     0.6252173255
   34      S      -1.2792928202     0.4282503665    -0.2026953288
   35      C      -1.9377106587    -0.6970578944    -1.3929519287
   36      C      -2.0748635064    -0.4789555451    -2.7671171805
   37      H      -1.8259204430     0.4790114550    -3.2007239951
   38      C      -2.5572668296    -1.4965639346    -3.5692011180
   39      H      -2.6468576487    -1.3231734848    -4.6344418722
   40      C      -2.9181003692    -2.7336223156    -3.0168552978
   41      H      -3.2879894032    -3.5294459208    -3.6528233985
   42      C      -2.8069583878    -2.9307553294    -1.6477639686
   43      H      -3.0992585774    -3.8778369741    -1.2087217642
   44      C      -2.3346117962    -1.9217154876    -0.8202248598
   45      H      -2.2368224167    -2.0756926523     0.2471709950
   46      C      -2.8401111321     0.9501368906     0.7511685575
   47      C      -2.9903790674     0.3118818439     1.9695766580
   48      H      -2.2028595845    -0.3390443400     2.3395792732
   49      C      -4.1405023518     0.5579643740     2.7128829996
   50      H      -4.2729091241     0.0729217393     3.6729648220
   51      C      -5.0982650953     1.4413986465     2.2342472160
   52      H      -5.9850688857     1.6428588485     2.8239372071
   53      C      -4.9291966164     2.0661201134     1.0004408470
   54      H      -5.6838294445     2.7506261810     0.6300462838
   55      C      -3.7954755053     1.8124621183     0.2410748263
   56      H      -3.6697163085     2.2563139847    -0.7400716562
   57      C      -0.8116559037     1.9141202307    -1.0399800654
   58      C       0.0085774112     1.8231989433    -2.1696383535
   59      H       0.2450297853     0.8582003991    -2.5965398529
   60      C       0.5465221005     2.9737784420    -2.7177053795
   61      H       1.1666446168     2.9018260624    -3.6025392638
   62      C       0.3178333384     4.2140401487    -2.1192766553
   63      H       0.7577647772     5.1141839951    -2.5315539222
   64      C      -0.4354510208     4.2856913113    -0.9546291743
   65      H      -0.5867746085     5.2381719367    -0.4605214558
   66      C      -1.0007013091     3.1460383721    -0.4023821600
   67      H      -1.5426088908     3.1992253053     0.5306487214
 ----------------------------------------------------------------
 Nuclear Repulsion Energy =        4578.27100941 hartrees
 There are      139 alpha and      138 beta electrons
 Discretize the solute cavity surface with Lebedev spheres
	Using 194 Lebedev grid points for each H atom
	Using 194 Lebedev grid points for other atoms
	Atomic van der Waals radii (UFF set) will be scaled by 1.10
 Using smooth SwiG surface discretization
 Remove points where switching function is < 1.0e-08
 Keep 5042 surface tesserae and discard 7956 interior tesserae
 Molecular Surface Area = 602.572 Angst**2

 Requested basis set is def2-SVPD
 There are 426 shells and 1006 basis functions
 A cutoff of  1.0D-16 yielded  76897 shell pairs
 There are    429551 function pairs (    497460 Cartesian)
 Smallest overlap matrix eigenvalue = 3.68E-06

 Scale SEOQF with 1.000000e-02/1.000000e-02/1.000000e-02

 Standard Electronic Orientation quadrupole field applied
 Nucleus-field energy     =     0.0000000033 hartrees
 Guess from superposition of atomic densities
 Warning:  Energy on first SCF cycle will be non-variational
 SAD guess density has 277.000000 electrons

 -----------------------------------------------------------------------
  General SCF calculation program by
  Eric Jon Sundstrom, Paul Horn, Yuezhi Mao, Dmitri Zuev, Alec White,
  David Stuck, Shaama M.S., Shane Yost, Joonho Lee, David Small,
  Daniel Levine, Susi Lehtola, Hugh Burton, Evgeny Epifanovsky,
  Bang C. Huynh
 -----------------------------------------------------------------------
 Exchange:  B97M-V      Correlation:  B97M-V
 Using SG-3 standard quadrature grid
 Nonlocal Correlation:  VV10 with C = 0.0100 and b = 6.00 and scale = 1.00000
 Grid used for NLC:  SG-1 standard quadrature
 using 40 threads for integral computing
 -------------------------------------------------------
 OpenMP Integral computing Module                
 Release: version 1.0, May 2013, Q-Chem Inc. Pittsburgh 
 -------------------------------------------------------
 C-PCM solvent model [f = (eps-1)/eps], solve by matrix inversion
 A unrestricted SCF calculation will be
 performed using DIIS
 SCF converges when DIIS error is below 1.0e-08
 ---------------------------------------
  Cycle       Energy         DIIS error
 ---------------------------------------
    1   -2192.2705348540      1.04e-02  
    2   -2183.1524405914      1.21e-03  
    3   -2179.9797791641      2.54e-03  
    4   -2183.5369356823      8.25e-04  
    5   -2183.9940093781      2.96e-04  
    6   -2183.9985810257      2.69e-04  
    7   -2184.0400538518      1.32e-04  
    8   -2184.0517054840      3.01e-05  
    9   -2184.0520679425      2.27e-05  
   10   -2184.0523427667      9.00e-06  
   11   -2184.0523779885      6.17e-06  
   12   -2184.0524042535      2.26e-06  
   13   -2184.0524079968      1.30e-06  
   14   -2184.0524093669      4.57e-07  
   15   -2184.0524096166      3.93e-07  
   16   -2184.0524097807      1.76e-07  
   17   -2184.0524098176      1.23e-07  
   18   -2184.0524098316      4.71e-08  
   19   -2184.0524098336      2.85e-08  
   20   -2184.0524098341      1.14e-08  
   21   -2184.0524098342      4.55e-09  Convergence criterion met
 ---------------------------------------
 SCF time:   CPU 38671.05s  wall 1949.00s 
<S^2> =          0.754866983

************** Final PCM Free Energy Summary **************
 G_electrostatic  =      -0.01411554 hartree =      -8.85763365 kcal/mol
 G_cavitation     =       0.00000000 hartree =       0.00000000 kcal/mol
 G_dispersion     =       0.00000000 hartree =       0.00000000 kcal/mol
 G_repulsion      =       0.00000000 hartree =       0.00000000 kcal/mol
 --------------------------------------------------
 Non-electrostatic Free Energy =       0.00000000 hartree =       0.00000000 kcal/mol
 Total                         =      -0.01411554 hartree =      -8.85763365 kcal/mol
 --------------------------------------------------
 SCF Energy (H0 + V/2)                       =   -2184.05240983 
 Solute Internal Energy (H0)                 =   -2184.03829430 
 Total Free Energy (H0 + V/2 + non-elec)     =   -2184.05240983 hartree
                                             = -1370513.57233134 kcal/mol
***********************************************************

 SCF   energy in the final basis set =    -2184.0524098342
 Total energy in the final basis set =    -2184.0524098342
 
 --------------------------------------------------------------
 
                    Orbital Energies (a.u.)
 --------------------------------------------------------------
 
 Alpha MOs
 -- Occupied --
-89.0374 -89.0374 -10.2479 -10.2432 -10.2385 -10.2287 -10.2217 -10.2163
-10.2150 -10.2133 -10.2123 -10.2103 -10.2090 -10.2081 -10.2080 -10.2076
-10.2066 -10.2061 -10.2057 -10.2044 -10.2034 -10.2015 -10.2011 -10.2010
-10.1998 -10.1991 -10.1991 -10.1981 -10.1969 -10.1938 -10.1932 -10.1917
-10.1907 -10.1848 -10.1814 -10.1782 -10.1685 -10.1346  -8.0634  -8.0608
 -5.9390  -5.9375  -5.9361  -5.9352  -5.9320  -5.9300  -0.8815  -0.8737
 -0.8530  -0.8438  -0.8386  -0.8293  -0.8035  -0.7995  -0.7457  -0.7439
 -0.7390  -0.7383  -0.7368  -0.7310  -0.7276  -0.7255  -0.7232  -0.7002
 -0.6839  -0.6765  -0.6063  -0.6037  -0.5988  -0.5971  -0.5919  -0.5891
 -0.5809  -0.5804  -0.5784  -0.5589  -0.5568  -0.5429  -0.5159  -0.5080
 -0.5028  -0.5001  -0.4873  -0.4769  -0.4565  -0.4527  -0.4517  -0.4494
 -0.4452  -0.4415  -0.4357  -0.4323  -0.4304  -0.4278  -0.4220  -0.4202
 -0.4157  -0.4136  -0.4115  -0.4105  -0.4091  -0.4066  -0.4000  -0.3975
 -0.3862  -0.3822  -0.3731  -0.3688  -0.3632  -0.3586  -0.3531  -0.3507
 -0.3483  -0.3439  -0.3419  -0.3387  -0.3363  -0.3349  -0.3314  -0.3298
 -0.3278  -0.3235  -0.3188  -0.3009  -0.2957  -0.2676  -0.2621  -0.2597
 -0.2554  -0.2526  -0.2487  -0.2472  -0.2427  -0.2413  -0.2289  -0.2277
 -0.2161  -0.1545  -0.0811
 -- Virtual --
 -0.0746  -0.0666  -0.0618  -0.0596  -0.0550  -0.0496  -0.0437  -0.0424
 -0.0389  -0.0335  -0.0166  -0.0122  -0.0093   0.0012   0.0064   0.0087
  0.0145   0.0173   0.0225   0.0266   0.0295   0.0323   0.0347   0.0379
  0.0426   0.0459   0.0465   0.0488   0.0509   0.0536   0.0554   0.0574
  0.0614   0.0663   0.0682   0.0704   0.0737   0.0755   0.0807   0.0816
  0.0839   0.0883   0.0906   0.0939   0.0946   0.0964   0.1008   0.1038
  0.1061   0.1098   0.1104   0.1144   0.1168   0.1203   0.1213   0.1237
  0.1266   0.1299   0.1311   0.1319   0.1351   0.1396   0.1412   0.1444
  0.1469   0.1481   0.1510   0.1532   0.1538   0.1555   0.1583   0.1607
  0.1633   0.1646   0.1684   0.1699   0.1736   0.1757   0.1780   0.1794
  0.1839   0.1866   0.1872   0.1882   0.1913   0.1956   0.1974   0.1980
  0.1988   0.2005   0.2045   0.2062   0.2082   0.2116   0.2121   0.2177
  0.2185   0.2226   0.2244   0.2254   0.2287   0.2300   0.2313   0.2346
  0.2350   0.2378   0.2386   0.2408   0.2414   0.2445   0.2460   0.2465
  0.2491   0.2513   0.2542   0.2565   0.2588   0.2593   0.2605   0.2669
  0.2676   0.2689   0.2702   0.2716   0.2731   0.2772   0.2801   0.2832
  0.2851   0.2885   0.2913   0.2927   0.2952   0.2971   0.2996   0.3017
  0.3029   0.3069   0.3080   0.3110   0.3121   0.3129   0.3163   0.3184
  0.3207   0.3219   0.3244   0.3249   0.3269   0.3283   0.3330   0.3342
  0.3399   0.3408   0.3415   0.3431   0.3439   0.3473   0.3481   0.3503
  0.3520   0.3535   0.3550   0.3571   0.3588   0.3591   0.3608   0.3643
  0.3661   0.3673   0.3699   0.3709   0.3722   0.3752   0.3764   0.3777
  0.3809   0.3818   0.3828   0.3838   0.3843   0.3852   0.3875   0.3894
  0.3899   0.3921   0.3932   0.3946   0.3962   0.3980   0.3998   0.4012
  0.4023   0.4030   0.4056   0.4068   0.4084   0.4112   0.4124   0.4133
  0.4155   0.4161   0.4178   0.4184   0.4210   0.4222   0.4238   0.4259
  0.4274   0.4296   0.4314   0.4320   0.4342   0.4357   0.4379   0.4409
  0.4425   0.4444   0.4454   0.4478   0.4501   0.4519   0.4537   0.4563
  0.4580   0.4585   0.4615   0.4617   0.4668   0.4687   0.4688   0.4703
  0.4733   0.4739   0.4772   0.4787   0.4802   0.4868   0.4879   0.4884
  0.4914   0.4936   0.4952   0.4954   0.4997   0.5024   0.5056   0.5072
  0.5093   0.5104   0.5126   0.5129   0.5194   0.5226   0.5256   0.5268
  0.5319   0.5327   0.5361   0.5386   0.5410   0.5443   0.5448   0.5484
  0.5493   0.5511   0.5538   0.5544   0.5580   0.5599   0.5644   0.5653
  0.5678   0.5695   0.5738   0.5762   0.5766   0.5794   0.5805   0.5838
  0.5848   0.5874   0.5890   0.5914   0.5948   0.5963   0.5969   0.5999
  0.6041   0.6047   0.6064   0.6070   0.6109   0.6127   0.6145   0.6170
  0.6181   0.6203   0.6227   0.6253   0.6276   0.6289   0.6300   0.6321
  0.6354   0.6361   0.6366   0.6386   0.6420   0.6428   0.6476   0.6497
  0.6501   0.6574   0.6589   0.6601   0.6622   0.6658   0.6683   0.6727
  0.6742   0.6771   0.6791   0.6809   0.6852   0.6886   0.6897   0.6913
  0.6980   0.7004   0.7032   0.7052   0.7082   0.7137   0.7161   0.7182
  0.7201   0.7217   0.7256   0.7298   0.7303   0.7332   0.7391   0.7404
  0.7427   0.7454   0.7481   0.7503   0.7514   0.7533   0.7577   0.7587
  0.7657   0.7668   0.7693   0.7705   0.7763   0.7773   0.7803   0.7840
  0.7864   0.7893   0.7902   0.7919   0.7987   0.7992   0.8002   0.8019
  0.8047   0.8082   0.8101   0.8117   0.8131   0.8153   0.8185   0.8201
  0.8240   0.8244   0.8292   0.8320   0.8333   0.8345   0.8387   0.8447
  0.8460   0.8501   0.8506   0.8556   0.8588   0.8613   0.8648   0.8674
  0.8706   0.8748   0.8783   0.8802   0.8807   0.8870   0.8906   0.8936
  0.8983   0.9010   0.9041   0.9078   0.9129   0.9170   0.9219   0.9244
  0.9317   0.9366   0.9413   0.9467   0.9489   0.9511   0.9549   0.9613
  0.9634   0.9669   0.9718   0.9758   0.9796   0.9839   0.9879   0.9912
  0.9949   0.9962   0.9984   1.0018   1.0053   1.0118   1.0128   1.0144
  1.0172   1.0179   1.0213   1.0244   1.0284   1.0316   1.0350   1.0393
  1.0403   1.0443   1.0479   1.0553   1.0563   1.0631   1.0660   1.0702
  1.0789   1.0814   1.0846   1.0928   1.0952   1.0999   1.1022   1.1095
  1.1115   1.1167   1.1191   1.1215   1.1259   1.1294   1.1341   1.1364
  1.1400   1.1422   1.1486   1.1509   1.1534   1.1541   1.1600   1.1624
  1.1634   1.1658   1.1677   1.1704   1.1771   1.1789   1.1807   1.1886
  1.1896   1.1940   1.1949   1.2002   1.2021   1.2096   1.2119   1.2187
  1.2221   1.2222   1.2301   1.2308   1.2318   1.2380   1.2427   1.2438
  1.2532   1.2538   1.2587   1.2625   1.2654   1.2655   1.2679   1.2732
  1.2752   1.2773   1.2805   1.2855   1.2928   1.2944   1.2966   1.3000
  1.3026   1.3068   1.3094   1.3119   1.3163   1.3177   1.3225   1.3263
  1.3269   1.3302   1.3359   1.3373   1.3420   1.3462   1.3497   1.3538
  1.3603   1.3628   1.3656   1.3666   1.3720   1.3777   1.3796   1.3935
  1.3975   1.3991   1.3999   1.4048   1.4069   1.4167   1.4269   1.4293
  1.4315   1.4399   1.4454   1.4497   1.4538   1.4629   1.4648   1.4697
  1.4727   1.4788   1.4802   1.4830   1.4941   1.4982   1.5019   1.5060
  1.5101   1.5131   1.5152   1.5235   1.5255   1.5301   1.5378   1.5414
  1.5482   1.5500   1.5595   1.5664   1.5678   1.5716   1.5768   1.5804
  1.5880   1.5915   1.5983   1.5999   1.6038   1.6051   1.6080   1.6133
  1.6199   1.6252   1.6282   1.6357   1.6375   1.6478   1.6544   1.6608
  1.6647   1.6689   1.6744   1.6780   1.6833   1.6917   1.6953   1.6994
  1.7029   1.7102   1.7133   1.7189   1.7218   1.7309   1.7323   1.7382
  1.7414   1.7485   1.7542   1.7576   1.7587   1.7631   1.7653   1.7681
  1.7783   1.7825   1.7847   1.7882   1.7936   1.7995   1.8014   1.8056
  1.8152   1.8175   1.8218   1.8268   1.8334   1.8402   1.8490   1.8535
  1.8623   1.8647   1.8670   1.8700   1.8738   1.8777   1.8823   1.8847
  1.8855   1.8937   1.8945   1.8971   1.9002   1.9096   1.9142   1.9153
  1.9214   1.9227   1.9302   1.9330   1.9387   1.9443   1.9510   1.9548
  1.9578   1.9655   1.9757   1.9769   1.9793   1.9811   1.9856   1.9885
  1.9961   2.0019   2.0113   2.0172   2.0270   2.0332   2.0350   2.0388
  2.0460   2.0481   2.0507   2.0569   2.0684   2.0740   2.0766   2.0818
  2.0829   2.0834   2.0886   2.0908   2.0963   2.0993   2.1042   2.1070
  2.1126   2.1169   2.1271   2.1308   2.1350   2.1376   2.1409   2.1425
  2.1480   2.1535   2.1572   2.1591   2.1656   2.1746   2.1750   2.1830
  2.1906   2.1925   2.1952   2.2015   2.2065   2.2125   2.2149   2.2177
  2.2263   2.2300   2.2333   2.2390   2.2450   2.2507   2.2519   2.2564
  2.2620   2.2701   2.2807   2.2863   2.2908   2.2939   2.3017   2.3078
  2.3233   2.3324   2.3603   2.3841   2.3863   2.3950   2.3977   2.4047
  2.4083   2.4115   2.4146   2.4171   2.4195   2.4231   2.4262   2.4326
  2.4366   2.4386   2.4429   2.4457   2.4468   2.4557   2.4587   2.4624
  2.4655   2.4675   2.4824   2.4875   2.4905   2.4947   2.5010   2.5028
  2.5083   2.5154   2.5185   2.5236   2.5255   2.5361   2.5453   2.5460
  2.5536   2.5582   2.5670   2.5705   2.5835   2.5860   2.5863   2.5989
  2.6044   2.6101   2.6133   2.6254   2.6320   2.6355   2.6396   2.6474
  2.6524   2.6537   2.6565   2.6593   2.6645   2.6666   2.6706   2.6782
  2.6832   2.6860   2.6957   2.7365   2.7440   2.7458   2.7487   2.7514
  2.7616   2.7783   2.9215   2.9227   2.9242   2.9271   2.9348   2.9375
  2.9403   2.9459   2.9483   2.9503   2.9537   2.9643   2.9704   2.9808
  2.9814   2.9846   2.9896   2.9943   2.9958   3.0001   3.0069   3.0185
  3.0288   3.0664   3.0731   3.0783   3.0807   3.0865   3.1056   3.1149
  3.1217   3.1224   3.1311   3.1333   3.1481   3.1627   3.2014   3.2121
  3.2188   3.2279   3.2306   3.2327   3.2371   3.2397   3.2501   3.2548
  3.2667   3.2963   3.3162   3.3266   3.3319   3.3380   3.3462   3.4017
  3.4070   3.4158   3.4179   3.4256   3.4299   3.7107   3.7595   3.7621
  3.7685   3.7697   3.7723
 
 Beta MOs
 -- Occupied --
-89.0373 -89.0369 -10.2479 -10.2431 -10.2379 -10.2278 -10.2181 -10.2161
-10.2151 -10.2133 -10.2121 -10.2101 -10.2090 -10.2082 -10.2080 -10.2072
-10.2066 -10.2057 -10.2055 -10.2035 -10.2034 -10.2014 -10.2014 -10.2008
-10.1996 -10.1991 -10.1985 -10.1971 -10.1965 -10.1941 -10.1917 -10.1915
-10.1906 -10.1826 -10.1814 -10.1781 -10.1685 -10.1346  -8.0634  -8.0604
 -5.9390  -5.9374  -5.9356  -5.9339  -5.9319  -5.9297  -0.8808  -0.8703
 -0.8527  -0.8420  -0.8364  -0.8289  -0.8016  -0.7980  -0.7454  -0.7432
 -0.7386  -0.7369  -0.7344  -0.7298  -0.7250  -0.7232  -0.7229  -0.6999
 -0.6807  -0.6760  -0.6059  -0.6029  -0.5972  -0.5952  -0.5917  -0.5873
 -0.5803  -0.5788  -0.5757  -0.5586  -0.5549  -0.5426  -0.5156  -0.5066
 -0.5005  -0.4998  -0.4858  -0.4766  -0.4562  -0.4524  -0.4499  -0.4475
 -0.4443  -0.4399  -0.4347  -0.4307  -0.4289  -0.4269  -0.4216  -0.4196
 -0.4152  -0.4133  -0.4109  -0.4100  -0.4076  -0.4055  -0.3988  -0.3954
 -0.3851  -0.3814  -0.3717  -0.3670  -0.3603  -0.3576  -0.3511  -0.3479
 -0.3471  -0.3435  -0.3416  -0.3384  -0.3351  -0.3336  -0.3299  -0.3293
 -0.3264  -0.3216  -0.3175  -0.2997  -0.2933  -0.2661  -0.2592  -0.2564
 -0.2540  -0.2508  -0.2467  -0.2446  -0.2392  -0.2361  -0.2281  -0.2210
 -0.2153  -0.1543
 -- Virtual --
 -0.0727  -0.0657  -0.0637  -0.0586  -0.0561  -0.0524  -0.0481  -0.0406
 -0.0383  -0.0368  -0.0308  -0.0123  -0.0112  -0.0032   0.0031   0.0071
  0.0113   0.0164   0.0198   0.0242   0.0272   0.0313   0.0331   0.0355
  0.0396   0.0435   0.0478   0.0490   0.0504   0.0516   0.0543   0.0566
  0.0579   0.0628   0.0689   0.0696   0.0715   0.0751   0.0763   0.0813
  0.0829   0.0862   0.0894   0.0924   0.0954   0.0961   0.0978   0.1019
  0.1044   0.1079   0.1116   0.1122   0.1163   0.1179   0.1210   0.1227
  0.1274   0.1282   0.1318   0.1320   0.1331   0.1363   0.1411   0.1421
  0.1453   0.1481   0.1494   0.1518   0.1542   0.1560   0.1570   0.1590
  0.1618   0.1643   0.1658   0.1694   0.1711   0.1752   0.1766   0.1793
  0.1804   0.1849   0.1875   0.1890   0.1892   0.1926   0.1967   0.1989
  0.1994   0.2002   0.2017   0.2055   0.2070   0.2095   0.2126   0.2135
  0.2188   0.2191   0.2240   0.2254   0.2269   0.2297   0.2314   0.2320
  0.2352   0.2359   0.2387   0.2399   0.2416   0.2427   0.2455   0.2471
  0.2474   0.2506   0.2526   0.2553   0.2575   0.2595   0.2607   0.2617
  0.2679   0.2690   0.2699   0.2722   0.2729   0.2741   0.2785   0.2813
  0.2840   0.2861   0.2894   0.2921   0.2951   0.2961   0.2982   0.3007
  0.3030   0.3040   0.3082   0.3095   0.3119   0.3133   0.3142   0.3174
  0.3201   0.3215   0.3234   0.3256   0.3263   0.3282   0.3297   0.3343
  0.3353   0.3413   0.3418   0.3429   0.3441   0.3450   0.3483   0.3490
  0.3512   0.3532   0.3546   0.3562   0.3580   0.3599   0.3606   0.3616
  0.3656   0.3671   0.3682   0.3709   0.3717   0.3731   0.3761   0.3771
  0.3787   0.3818   0.3829   0.3836   0.3845   0.3851   0.3862   0.3884
  0.3904   0.3906   0.3933   0.3940   0.3954   0.3970   0.3991   0.4006
  0.4020   0.4034   0.4038   0.4064   0.4078   0.4094   0.4119   0.4134
  0.4144   0.4164   0.4174   0.4190   0.4195   0.4220   0.4231   0.4251
  0.4268   0.4283   0.4306   0.4325   0.4333   0.4351   0.4367   0.4390
  0.4419   0.4434   0.4456   0.4465   0.4489   0.4514   0.4529   0.4549
  0.4577   0.4587   0.4596   0.4628   0.4629   0.4682   0.4699   0.4703
  0.4715   0.4744   0.4751   0.4787   0.4802   0.4815   0.4883   0.4891
  0.4905   0.4926   0.4947   0.4968   0.4975   0.5012   0.5045   0.5076
  0.5091   0.5107   0.5120   0.5141   0.5148   0.5211   0.5251   0.5272
  0.5284   0.5336   0.5342   0.5374   0.5406   0.5429   0.5453   0.5467
  0.5502   0.5507   0.5531   0.5550   0.5562   0.5592   0.5613   0.5661
  0.5665   0.5692   0.5713   0.5753   0.5779   0.5785   0.5811   0.5818
  0.5854   0.5862   0.5887   0.5903   0.5930   0.5957   0.5977   0.5982
  0.6017   0.6057   0.6061   0.6081   0.6085   0.6120   0.6146   0.6161
  0.6184   0.6200   0.6214   0.6244   0.6268   0.6287   0.6301   0.6314
  0.6334   0.6365   0.6378   0.6383   0.6406   0.6433   0.6445   0.6492
  0.6514   0.6523   0.6590   0.6609   0.6615   0.6639   0.6685   0.6701
  0.6743   0.6762   0.6786   0.6804   0.6831   0.6871   0.6905   0.6912
  0.6933   0.7005   0.7022   0.7049   0.7068   0.7105   0.7152   0.7184
  0.7201   0.7221   0.7237   0.7276   0.7315   0.7324   0.7352   0.7409
  0.7423   0.7445   0.7476   0.7502   0.7531   0.7539   0.7555   0.7596
  0.7605   0.7679   0.7684   0.7711   0.7729   0.7781   0.7787   0.7822
  0.7855   0.7880   0.7910   0.7917   0.7938   0.8002   0.8006   0.8018
  0.8044   0.8066   0.8100   0.8116   0.8134   0.8147   0.8172   0.8202
  0.8216   0.8252   0.8257   0.8309   0.8335   0.8352   0.8361   0.8411
  0.8465   0.8480   0.8521   0.8525   0.8576   0.8606   0.8631   0.8668
  0.8691   0.8729   0.8765   0.8809   0.8822   0.8831   0.8891   0.8921
  0.8954   0.9006   0.9025   0.9060   0.9092   0.9150   0.9192   0.9239
  0.9261   0.9328   0.9384   0.9423   0.9480   0.9498   0.9519   0.9560
  0.9630   0.9645   0.9686   0.9731   0.9769   0.9814   0.9852   0.9894
  0.9925   0.9968   0.9980   0.9997   1.0034   1.0073   1.0129   1.0139
  1.0166   1.0195   1.0208   1.0225   1.0269   1.0301   1.0327   1.0370
  1.0414   1.0423   1.0458   1.0507   1.0569   1.0583   1.0648   1.0678
  1.0724   1.0802   1.0834   1.0865   1.0951   1.0973   1.1023   1.1038
  1.1107   1.1136   1.1188   1.1213   1.1231   1.1281   1.1312   1.1358
  1.1378   1.1414   1.1435   1.1502   1.1530   1.1546   1.1553   1.1613
  1.1645   1.1650   1.1677   1.1690   1.1720   1.1785   1.1811   1.1829
  1.1903   1.1914   1.1956   1.1966   1.2018   1.2036   1.2111   1.2133
  1.2204   1.2234   1.2243   1.2319   1.2327   1.2334   1.2397   1.2453
  1.2464   1.2550   1.2555   1.2607   1.2649   1.2670   1.2671   1.2695
  1.2753   1.2771   1.2791   1.2822   1.2872   1.2949   1.2964   1.2984
  1.3018   1.3044   1.3085   1.3114   1.3135   1.3181   1.3198   1.3247
  1.3285   1.3293   1.3316   1.3375   1.3396   1.3445   1.3480   1.3520
  1.3552   1.3631   1.3651   1.3672   1.3680   1.3738   1.3796   1.3825
  1.3953   1.3996   1.4008   1.4019   1.4071   1.4097   1.4185   1.4286
  1.4312   1.4330   1.4431   1.4470   1.4518   1.4566   1.4644   1.4665
  1.4720   1.4752   1.4809   1.4824   1.4852   1.4967   1.5008   1.5038
  1.5085   1.5126   1.5146   1.5179   1.5261   1.5281   1.5322   1.5396
  1.5439   1.5496   1.5525   1.5619   1.5685   1.5704   1.5729   1.5785
  1.5824   1.5897   1.5944   1.6002   1.6016   1.6055   1.6070   1.6106
  1.6147   1.6216   1.6277   1.6303   1.6377   1.6399   1.6495   1.6565
  1.6627   1.6671   1.6713   1.6771   1.6803   1.6854   1.6947   1.6973
  1.7015   1.7051   1.7123   1.7156   1.7211   1.7237   1.7326   1.7343
  1.7401   1.7427   1.7504   1.7565   1.7594   1.7603   1.7648   1.7668
  1.7694   1.7797   1.7846   1.7867   1.7899   1.7953   1.8013   1.8032
  1.8074   1.8169   1.8198   1.8239   1.8286   1.8359   1.8418   1.8508
  1.8549   1.8643   1.8666   1.8687   1.8714   1.8752   1.8790   1.8847
  1.8864   1.8875   1.8953   1.8961   1.8987   1.9016   1.9112   1.9164
  1.9183   1.9231   1.9242   1.9324   1.9354   1.9404   1.9456   1.9530
  1.9562   1.9589   1.9674   1.9775   1.9790   1.9822   1.9833   1.9878
  1.9903   1.9982   2.0040   2.0132   2.0191   2.0286   2.0347   2.0367
  2.0414   2.0486   2.0504   2.0533   2.0597   2.0699   2.0758   2.0784
  2.0834   2.0845   2.0855   2.0903   2.0923   2.0976   2.1016   2.1055
  2.1088   2.1143   2.1190   2.1289   2.1323   2.1370   2.1394   2.1429
  2.1439   2.1503   2.1558   2.1586   2.1604   2.1674   2.1760   2.1774
  2.1854   2.1927   2.1946   2.1962   2.2035   2.2076   2.2135   2.2166
  2.2191   2.2278   2.2318   2.2350   2.2413   2.2465   2.2524   2.2534
  2.2593   2.2635   2.2717   2.2829   2.2876   2.2921   2.2962   2.3039
  2.3114   2.3267   2.3350   2.3618   2.3859   2.3877   2.3973   2.3995
  2.4060   2.4110   2.4130   2.4154   2.4183   2.4218   2.4253   2.4288
  2.4341   2.4390   2.4410   2.4443   2.4483   2.4487   2.4582   2.4604
  2.4655   2.4665   2.4701   2.4833   2.4895   2.4916   2.4963   2.5031
  2.5054   2.5095   2.5174   2.5205   2.5258   2.5282   2.5386   2.5467
  2.5473   2.5554   2.5600   2.5683   2.5727   2.5842   2.5868   2.5879
  2.6000   2.6051   2.6113   2.6146   2.6263   2.6336   2.6375   2.6427
  2.6487   2.6539   2.6555   2.6584   2.6610   2.6673   2.6689   2.6725
  2.6792   2.6864   2.6895   2.6992   2.7372   2.7445   2.7472   2.7522
  2.7552   2.7650   2.7788   2.9237   2.9241   2.9254   2.9284   2.9356
  2.9393   2.9420   2.9480   2.9503   2.9523   2.9551   2.9661   2.9705
  2.9813   2.9822   2.9852   2.9902   2.9947   2.9964   3.0014   3.0076
  3.0199   3.0304   3.0668   3.0740   3.0827   3.0833   3.0871   3.1088
  3.1159   3.1223   3.1242   3.1326   3.1344   3.1505   3.1631   3.2030
  3.2137   3.2209   3.2290   3.2331   3.2347   3.2378   3.2406   3.2514
  3.2555   3.2675   3.2965   3.3165   3.3274   3.3330   3.3392   3.3474
  3.4030   3.4072   3.4176   3.4219   3.4271   3.4320   3.7109   3.7597
  3.7629   3.7687   3.7710   3.7740
 --------------------------------------------------------------
 
          Ground-State Mulliken Net Atomic Charges

     Atom                 Charge (a.u.)    Spin (a.u.)
  --------------------------------------------------------
      1 S                    -1.851686       0.054046
      2 C                    -1.218299      -0.008718
      3 C                     0.787851      -0.027862
      4 H                     0.479537      -0.006931
      5 C                    -0.527942       0.078281
      6 H                     0.217392      -0.010729
      7 C                    -0.064288      -0.029222
      8 H                     0.665352       0.001721
      9 C                    -0.299991       0.054820
     10 H                     0.243341      -0.008688
     11 C                     0.706387       0.023321
     12 H                    -0.037522      -0.001004
     13 C                    -0.245784      -0.012129
     14 C                    -0.067170       0.012696
     15 C                    -0.104440       0.002077
     16 H                    -0.477799      -0.001913
     17 C                     0.102960       0.011905
     18 H                     0.272197      -0.001780
     19 C                    -0.257811      -0.005595
     20 H                     0.444568      -0.000942
     21 C                     0.153642       0.018326
     22 H                     0.016406      -0.001923
     23 C                    -1.168227       0.003211
     24 C                     0.506816      -0.000216
     25 H                     0.335100       0.001163
     26 C                    -0.433349       0.002107
     27 H                     0.310820       0.000103
     28 C                    -0.133130      -0.001917
     29 H                     0.602583       0.000262
     30 C                    -0.440015       0.001371
     31 H                     0.275191      -0.000293
     32 C                     0.686060      -0.000683
     33 H                     0.205538       0.000834
     34 S                    -1.546310       0.190450
     35 C                    -1.061667      -0.039603
     36 C                     0.455961       0.051824
     37 H                     0.529536       0.001678
     38 C                    -0.476390      -0.033429
     39 H                     0.332206      -0.006976
     40 C                    -0.258017       0.227712
     41 H                     0.555694      -0.029845
     42 C                    -0.310833      -0.132232
     43 H                     0.348972       0.010447
     44 C                     0.490497       0.273627
     45 H                     0.036240      -0.006571
     46 C                    -1.219499       0.098494
     47 C                     0.667495       0.028246
     48 H                     0.185482       0.048184
     49 C                    -0.446262      -0.008788
     50 H                     0.272186      -0.002020
     51 C                    -0.151852       0.023153
     52 H                     0.551655      -0.003868
     53 C                    -0.342687       0.015595
     54 H                     0.357329      -0.003531
     55 C                     0.463900      -0.018578
     56 H                     0.236983       0.027205
     57 C                    -1.039176      -0.033390
     58 C                     0.503697       0.019926
     59 H                     0.086931       0.033651
     60 C                    -0.516424      -0.014199
     61 H                     0.288922      -0.005952
     62 C                    -0.178574       0.107661
     63 H                     0.646434      -0.013389
     64 C                    -0.391587      -0.060972
     65 H                     0.404373       0.003814
     66 C                     0.612016       0.115714
     67 H                     0.228481      -0.009735
  --------------------------------------------------------
  Sum of atomic charges =     0.000000
  Sum of spin   charges =     1.000000

  Building new vdw surfaces
         Merz-Kollman RESP Net Atomic Charges

     Atom                 Charge (a.u.)
  ----------------------------------------
      1 S                    -0.511227
      2 C                     0.318119
      3 C                    -0.183809
      4 H                     0.173042
      5 C                    -0.192974
      6 H                     0.159693
      7 C                    -0.081156
      8 H                     0.139654
      9 C                    -0.199670
     10 H                     0.159153
     11 C                    -0.154638
     12 H                     0.171654
     13 C                     0.919166
     14 C                    -0.974167
     15 C                     0.317474
     16 H                     0.027034
     17 C                    -0.456793
     18 H                     0.164874
     19 C                     0.106747
     20 H                     0.097766
     21 C                    -0.618698
     22 H                     0.193462
     23 C                     0.281907
     24 C                    -0.238529
     25 H                     0.162619
     26 C                    -0.141674
     27 H                     0.146133
     28 C                    -0.093155
     29 H                     0.133831
     30 C                    -0.209839
     31 H                     0.155299
     32 C                    -0.041908
     33 H                     0.150247
     34 S                    -0.356845
     35 C                     0.270925
     36 C                    -0.254033
     37 H                     0.138221
     38 C                    -0.146445
     39 H                     0.138424
     40 C                    -0.148309
     41 H                     0.119193
     42 C                    -0.146409
     43 H                     0.144006
     44 C                    -0.227731
     45 H                     0.152313
     46 C                     0.341087
     47 C                    -0.254033
     48 H                     0.197209
     49 C                    -0.127000
     50 H                     0.139420
     51 C                    -0.148309
     52 H                     0.139654
     53 C                    -0.141318
     54 H                     0.144006
     55 C                    -0.227731
     56 H                     0.152540
     57 C                     0.271875
     58 C                    -0.091520
     59 H                     0.156627
     60 C                    -0.217956
     61 H                     0.151097
     62 C                    -0.110541
     63 H                     0.131057
     64 C                    -0.131151
     65 H                     0.146085
     66 C                    -0.278931
     67 H                     0.194884
  ----------------------------------------
  Sum of atomic charges =     0.000000

  Related Dipole Moment =     5.9126 (X  1.9393 Y -2.4878 Z -5.0009)

 -----------------------------------------------------------------
                    Cartesian Multipole Moments
 -----------------------------------------------------------------
    Charge (ESU x 10^10)
                 0.0000
    Dipole Moment (Debye)
         X       1.9699      Y      -2.4527      Z      -4.9976
       Tot       5.9053
    Quadrupole Moments (Debye-Ang)
        XX    -221.1175     XY      -3.9447     YY    -215.0873
        XZ     -15.8939     YZ      -8.0861     ZZ    -237.5281
    Octopole Moments (Debye-Ang^2)
       XXX      63.8937    XXY      42.4277    XYY       1.4383
       YYY     -37.2364    XXZ     -12.1116    XYZ     -13.9518
       YYZ     -39.0770    XZZ     -22.0522    YZZ     -40.6087
       ZZZ     -70.6081
    Hexadecapole Moments (Debye-Ang^3)
      XXXX   -9480.4174   XXXY      41.5236   XXYY   -2687.3175
      XYYY     260.6995   YYYY   -6099.9657   XXXZ    -618.7491
      XXYZ     -91.9281   XYYZ     -94.7390   YYYZ    -295.4560
      XXZZ   -2753.2817   XYZZ      23.0037   YYZZ   -2142.7420
      XZZZ    -271.9543   YZZZ    -322.4949   ZZZZ   -6191.0393
 -----------------------------------------------------------------
 Calculating analytic gradient of the SCF energy
 Gradient of SCF Energy
            1           2           3           4           5           6
    1  -0.0262125   0.0013448   0.0010384  -0.0000573   0.0000334  -0.0009967
    2  -0.0068386   0.0023847  -0.0004453   0.0002831   0.0035368  -0.0008683
    3  -0.0004440   0.0013809   0.0012533  -0.0011586   0.0002285   0.0027631
            7           8           9          10          11          12
    1  -0.0002838   0.0001561  -0.0006373   0.0013634   0.0028330  -0.0004510
    2  -0.0009919  -0.0033359   0.0004157   0.0008376   0.0013830   0.0005791
    3  -0.0016578  -0.0017107   0.0009197  -0.0020742   0.0005849   0.0001761
           13          14          15          16          17          18
    1   0.0057989   0.0065645  -0.0033174  -0.0002528   0.0018149   0.0019775
    2   0.0057690  -0.0021009   0.0026632  -0.0135280  -0.0050137  -0.0031832
    3   0.0159567  -0.0008313   0.0072279  -0.0079946  -0.0017010  -0.0119091
           19          20          21          22          23          24
    1  -0.0022308  -0.0016545  -0.0030456  -0.0038522   0.0077361  -0.0027374
    2   0.0058115   0.0068930   0.0024133   0.0043088   0.0082114   0.0018624
    3  -0.0012679  -0.0031912  -0.0019340   0.0032475  -0.0002938  -0.0029537
           25          26          27          28          29          30
    1   0.0004571  -0.0006889   0.0013624  -0.0039339   0.0018777  -0.0019476
    2  -0.0003329   0.0017824  -0.0025268   0.0018281   0.0008922  -0.0030644
    3   0.0008280   0.0002309  -0.0010261   0.0013563  -0.0001250  -0.0001238
           31          32          33          34          35          36
    1  -0.0022651  -0.0043743   0.0070729   0.0317722  -0.0139980   0.0064037
    2  -0.0021795  -0.0007157  -0.0039078   0.0094649  -0.0036259  -0.0031087
    3   0.0004071   0.0039213  -0.0055586  -0.0000729  -0.0040583   0.0034766
           37          38          39          40          41          42
    1   0.0004687  -0.0009752  -0.0003816   0.0023398   0.0027230  -0.0008514
    2  -0.0037531  -0.0028482   0.0004079   0.0046303   0.0019291   0.0025366
    3  -0.0004715   0.0013391   0.0031644   0.0059728   0.0021398  -0.0053669
           43          44          45          46          47          48
    1  -0.0000111  -0.0017646   0.0030360  -0.0185886   0.0042210  -0.0074475
    2   0.0037892   0.0016821  -0.0018073  -0.0068796  -0.0007253   0.0031468
    3  -0.0011204   0.0022064  -0.0040576   0.0087914  -0.0051758  -0.0022016
           49          50          51          52          53          54
    1  -0.0012595   0.0020026   0.0072272   0.0041622   0.0010879   0.0020050
    2   0.0024759   0.0018037  -0.0014519  -0.0006319  -0.0013676  -0.0027297
    3  -0.0020050  -0.0056058  -0.0036829  -0.0014616   0.0040956   0.0004094
           55          56          57          58          59          60
    1   0.0052490  -0.0040261  -0.0020649  -0.0019128   0.0014724  -0.0016045
    2   0.0006260  -0.0020604   0.0070657  -0.0023143   0.0025043   0.0003958
    3   0.0032728   0.0037215   0.0039537   0.0033604   0.0002543   0.0009796
           61          62          63          64          65          66
    1   0.0003279  -0.0034440  -0.0009062   0.0001827  -0.0003074  -0.0040811
    2  -0.0002445  -0.0025512  -0.0002235  -0.0029048  -0.0044480  -0.0026079
    3   0.0002442   0.0024919   0.0011898  -0.0017458  -0.0003612  -0.0013488
           67
    1   0.0064513
    2   0.0010033
    3  -0.0068545
 Max gradient component =       3.177E-02
 RMS gradient           =       4.928E-03
 Computing fast CPCM-SWIG gradient
 Updating gradient with PCM contributions...
 -- total gradient after adding PCM contribution --
---------------------------------------------------
  Atom         X              Y              Z     
---------------------------------------------------
   1      -0.025315      -0.005452      -0.000163
   2       0.000963      -0.001273      -0.002830
   3       0.001023      -0.001200      -0.000378
   4       0.000103       0.000134      -0.002476
   5       0.000274       0.002300      -0.000390
   6       0.000408       0.001836      -0.001247
   7       0.000577       0.001913      -0.000232
   8       0.000869       0.002064       0.000868
   9      -0.001268      -0.001175       0.001996
  10      -0.000185       0.000189       0.002583
  11       0.002814       0.000289       0.000994
  12      -0.001887      -0.001900       0.001117
  13       0.005294       0.003059       0.003844
  14       0.003286      -0.001220       0.001595
  15       0.000343      -0.002265      -0.000988
  16       0.000364      -0.002303      -0.001182
  17       0.000553      -0.000582      -0.000176
  18       0.000469      -0.000234      -0.002477
  19      -0.001826       0.002123      -0.002502
  20      -0.000588       0.001990      -0.001232
  21      -0.003186      -0.000473       0.001802
  22      -0.001332       0.001954       0.000281
  23       0.007857       0.004513      -0.001512
  24      -0.000849       0.002072      -0.002464
  25       0.000339       0.002099       0.001029
  26      -0.000436       0.001924       0.000129
  27      -0.002085       0.001201       0.000814
  28      -0.002965      -0.000752       0.000783
  29      -0.001680      -0.001382       0.000680
  30      -0.000070      -0.002101      -0.001331
  31      -0.000399      -0.002444      -0.000154
  32       0.001593      -0.000271       0.002398
  33       0.001477      -0.002121      -0.000871
  34       0.030656       0.006768      -0.003058
  35      -0.012948      -0.003680      -0.001970
  36       0.005331      -0.003022       0.001413
  37      -0.000374      -0.001917       0.001120
  38      -0.000299      -0.002167       0.000571
  39       0.000432       0.000269       0.002689
  40       0.001263       0.003027       0.003315
  41       0.000920       0.001377       0.001383
  42       0.000189       0.000172      -0.003242
  43       0.000284       0.002416      -0.000738
  44      -0.001573       0.002542       0.000761
  45       0.000546       0.000496      -0.002588
  46      -0.014509      -0.008107       0.001560
  47       0.000540      -0.000059      -0.001045
  48      -0.001917       0.001130      -0.001233
  49      -0.001443       0.002122      -0.000842
  50       0.000722       0.000746      -0.002399
  51       0.002708      -0.000542      -0.002864
  52       0.002153      -0.000410      -0.000746
  53       0.001186      -0.000194       0.002579
  54       0.001777      -0.001896       0.000707
  55       0.004496       0.003821       0.003477
  56      -0.000887      -0.002425       0.001745
  57       0.001662       0.000765       0.001068
  58      -0.001066       0.000209      -0.000413
  59       0.000148       0.002698       0.000916
  60      -0.001267      -0.000759       0.001264
  61      -0.001238       0.000398       0.002342
  62      -0.001185      -0.002190       0.000031
  63      -0.000962      -0.001551       0.001456
  64       0.001084      -0.001519      -0.001177
  65      -0.000049      -0.002183      -0.000738
  66      -0.003148       0.001566      -0.002174
  67       0.002235      -0.000411      -0.001479
---------------------------------------------------
 Number of fixed atoms: 0
 Gradient time:  CPU 2037.63 s  wall 243.46 s

 *****************************************************
             Starting BFGS Algorithm
 *****************************************************
            LIBOPT3 RUN PARAMETERS

  Geometry Optimization Coordinates :
	Internal Coordinates

  Step Length Selection Method :
	Eigenvector Following Algorithm

  Convergence Criteria :
	Max Gradient Component    	3.00000000e-04
	Max Displacement Component	1.20000000e-03
	Absolute Energy Difference	1.00000000e-06

  Initial Hessian :
	Approximate Hessian - Simple Internal Coordinate Scaled

  Type of Verification :
	Verify with final updated Hessian
 *****************************************************

	OPTIMIZATION CYCLE:	1

 Scaling Magnitude of Eigenvalues
 	Minimum: -25.00000000	 Maximum: 25.00000000
 383 Hessian Eigenvalues to form next step
   0.10000000   0.10000000   0.10000000   0.10000000   0.10000000
   0.10000000   0.10000000   0.10000000   0.10000000   0.10000000
   0.10000000   0.10000000   0.10000000   0.10000000   0.10000000
   0.10000000   0.10000000   0.10000000   0.10000000   0.10000000
   0.10000000   0.10000000   0.10000000   0.10000000   0.10000000
   0.10000000   0.10000000   0.10000000   0.10000000   0.10000000
   0.10000000   0.10000000   0.10000000   0.10000000   0.10000000
   0.10000000   0.10000000   0.10000000   0.10000000   0.10000000
   0.10000000   0.10000000   0.10000000   0.10000000   0.10000000
   0.10000000   0.10000000   0.10000000   0.10000000   0.10000000
   0.10000000   0.10000000   0.10000000   0.10000000   0.10000000
   0.10000000   0.10000000   0.10000000   0.10000000   0.10000000
   0.10000000   0.10000000   0.10000000   0.10000000   0.10000000
   0.10000000   0.10000000   0.10000000   0.10000000   0.10000000
   0.10000000   0.10000000   0.10000000   0.10000000   0.10000000
   0.10000000   0.10000000   0.10000000   0.10000000   0.10000000
   0.10000000   0.10000000   0.10000000   0.10000000   0.10000000
   0.10000000   0.10000000   0.10000000   0.10000000   0.10000000
   0.10000000   0.10000000   0.10000000   0.10000000   0.10000000
   0.10000000   0.10000000   0.10000000   0.10000000   0.10000000
   0.10000000   0.10000000   0.10000000   0.10000000   0.10000000
   0.10000000   0.10000000   0.10000000   0.10000000   0.10000000
   0.10000000   0.10000000   0.10000000   0.10000000   0.10000000
   0.10000000   0.10000000   0.10000000   0.10000000   0.10000000
   0.10000000   0.10000000   0.10000000   0.10000000   0.10000000
   0.10000000   0.10000000   0.10000000   0.10000000   0.10000000
   0.10000000   0.10000000   0.10000000   0.10000000   0.10000000
   0.10000000   0.10000000   0.10000000   0.10000000   0.10000000
   0.10000000   0.10000000   0.10000000   0.10000000   0.10000000
   0.10000000   0.10000000   0.10000000   0.10000000   0.10000000
   0.10000000   0.10000000   0.10000000   0.10000000   0.10000000
   0.10000000   0.10000000   0.10000000   0.10000000   0.10000000
   0.10000000   0.10000000   0.10000000   0.10000000   0.10000000
   0.10000000   0.10000000   0.10000000   0.10000000   0.10000000
   0.10000000   0.10000000   0.10000000   0.10000000   0.10000000
   0.10000000   0.10000000   0.10000000   0.10000000   0.10000000
   0.10000000   0.10000000   0.10000000   0.10000000   0.10000000
   0.10000000   0.10000000   0.10000000   0.10000000   0.10000000
   0.20000000   0.20000000   0.20000000   0.20000000   0.20000000
   0.20000000   0.20000000   0.20000000   0.20000000   0.20000000
   0.20000000   0.20000000   0.20000000   0.20000000   0.20000000
   0.20000000   0.20000000   0.20000000   0.20000000   0.20000000
   0.20000000   0.20000000   0.20000000   0.20000000   0.20000000
   0.20000000   0.20000000   0.20000000   0.20000000   0.20000000
   0.20000000   0.20000000   0.20000000   0.20000000   0.20000000
   0.20000000   0.20000000   0.20000000   0.20000000   0.20000000
   0.20000000   0.20000000   0.20000000   0.20000000   0.20000000
   0.20000000   0.20000000   0.20000000   0.20000000   0.20000000
   0.20000000   0.20000000   0.20000000   0.20000000   0.20000000
   0.20000000   0.20000000   0.20000000   0.20000000   0.20000000
   0.20000000   0.20000000   0.20000000   0.20000000   0.20000000
   0.20000000   0.20000000   0.20000000   0.20000000   0.20000000
   0.20000000   0.20000000   0.20000000   0.20000000   0.20000000
   0.20000000   0.20000000   0.20000000   0.20000000   0.20000000
   0.20000000   0.20000000   0.20000000   0.20000000   0.20000000
   0.20000000   0.20000000   0.20000000   0.20000000   0.20000000
   0.20000000   0.20000000   0.20000000   0.20000000   0.20000000
   0.20000000   0.20000000   0.20000000   0.20000000   0.20000000
   0.20000000   0.20000000   0.20000000   0.20000000   0.20000000
   0.20000000   0.20000000   0.20000000   0.20000000   0.20000000
   0.20000000   0.20000000   0.20000000   0.20000000   0.20000000
   0.20000000   0.20000000   0.20000000   0.20000000   0.20000000
   0.50000000   0.50000000   0.50000000   0.50000000   0.50000000
   0.50000000   0.50000000   0.50000000   0.50000000   0.50000000
   0.50000000   0.50000000   0.50000000   0.50000000   0.50000000
   0.50000000   0.50000000   0.50000000   0.50000000   0.50000000
   0.50000000   0.50000000   0.50000000   0.50000000   0.50000000
   0.50000000   0.50000000   0.50000000   0.50000000   0.50000000
   0.50000000   0.50000000   0.50000000   0.50000000   0.50000000
   0.50000000   0.50000000   0.50000000   0.50000000   0.50000000
   0.50000000   0.50000000   0.50000000   0.50000000   0.50000000
   0.50000000   0.50000000   0.50000000   0.50000000   0.50000000
   0.50000000   0.50000000   0.50000000   0.50000000   0.50000000
   0.50000000   0.50000000   0.50000000   0.50000000   0.50000000
   0.50000000   0.50000000   0.50000000   0.50000000   0.50000000
   0.50000000   0.50000000   0.50000000   0.50000000   0.50000000
   0.50000000   0.50000000   0.50000000

 Minimum Search taking a RFO step
 Searching for Lambda that minimizes along all modes
	Value of Lambda  -0.00508187
	Norm of Stepsize  0.17181448
	RMS of Stepsize  0.00877931

	Performing Iterative Coordinate Back-Transformation

	  Starting from Previous Position

	  iter:	0	rms: 5.2160884102e-02	maxdev: 1.5995974036e-01
	  iter:	1	rms: 9.0249157674e-04	maxdev: 3.7451767415e-03
	  iter:	2	rms: 1.2757757669e-06	maxdev: 4.6813808112e-06
	  iter:	3	rms: 3.6108059078e-09	maxdev: 1.1967022422e-08	 Success!

	Finished Iterative Coordinate Back-Transformation
 ----------------------------------------------------------------
             Standard Nuclear Orientation (Angstroms)
    I     Atom           X                Y                Z
 ----------------------------------------------------------------
    1      S       1.3936435211    -0.2985909990     0.4550379947
    2      C       1.2952883832    -1.9441232088    -0.2120333303
    3      C       0.7895686012    -2.9997706033     0.5452130995
    4      H       0.5806189208    -2.8713602080     1.5996521799
    5      C       0.5251942446    -4.2183145079    -0.0828548554
    6      H       0.1315939659    -5.0448890763     0.5005958221
    7      C       0.7371435580    -4.3637475839    -1.4521513594
    8      H       0.5235680781    -5.3126014025    -1.9348355656
    9      C       1.2087085884    -3.2914718947    -2.2070809440
   10      H       1.3528796363    -3.3933142376    -3.2775773669
   11      C       1.4871926879    -2.0720769619    -1.5907615243
   12      H       1.8281566507    -1.2243956350    -2.1751959526
   13      C       1.4173206375    -0.2096070121     2.2675232889
   14      C       0.8673254960     0.9953310476     2.6804944280
   15      C       0.8831403428     1.1223923926     4.0886235443
   16      H       0.4918888571     2.0314736198     4.5518971341
   17      C       1.3581319187     0.1226386631     4.9414458924
   18      H       1.3214816373     0.2607507856     6.0206270853
   19      C       1.8978093795    -1.0611822091     4.4251615953
   20      H       2.2926262661    -1.8261301039     5.0891267774
   21      C       1.9501385285    -1.2419022703     3.0474877451
   22      H       2.4103376415    -2.1294437319     2.6205337890
   23      C       3.0644054422     0.2715183731     0.0322711997
   24      C       4.0729925352    -0.5575911850    -0.4466116642
   25      H       3.9184777728    -1.6259140689    -0.5417596781
   26      C       5.3064784351     0.0071866258    -0.7702132479
   27      H       6.1036708155    -0.6313234405    -1.1391748740
   28      C       5.5195571217     1.3746062216    -0.6123781137
   29      H       6.4859954453     1.8018524791    -0.8622555544
   30      C       4.4985594705     2.1896623192    -0.1247556961
   31      H       4.6604756025     3.2555162260     0.0003745456
   32      C       3.2597751520     1.6431151136     0.1955614553
   33      H       2.4461924106     2.2573909785     0.5724377099
   34      S      -1.2979146187     0.4240183697    -0.1860227235
   35      C      -1.9274442070    -0.7046941924    -1.3873741643
   36      C      -2.0844796446    -0.4670093177    -2.7625944102
   37      H      -1.8656310585     0.5066701142    -3.1830903423
   38      C      -2.5484961035    -1.4841296914    -3.5827050199
   39      H      -2.6524093139    -1.2946320172    -4.6467164070
   40      C      -2.8750725142    -2.7456785981    -3.0531490536
   41      H      -3.2307802089    -3.5391663612    -3.7037743933
   42      C      -2.7482293850    -2.9632521419    -1.6827638163
   43      H      -3.0139056266    -3.9277668570    -1.2585788644
   44      C      -2.2948904439    -1.9551824850    -0.8378374567
   45      H      -2.1908823875    -2.1293539680     0.2286010446
   46      C      -2.8559765819     0.9539199370     0.7614039660
   47      C      -3.0141158748     0.3371725073     1.9955141045
   48      H      -2.2199012313    -0.2957416955     2.3893588470
   49      C      -4.1794427387     0.5784156034     2.7242364292
   50      H      -4.3155974697     0.1102085450     3.6951125512
   51      C      -5.1529506843     1.4365261018     2.2174650205
   52      H      -6.0529770976     1.6344607267     2.7924596411
   53      C      -4.9791152414     2.0395094761     0.9677364043
   54      H      -5.7430621358     2.7047692215     0.5739045999
   55      C      -3.8285529357     1.7905122490     0.2248645820
   56      H      -3.7012688437     2.2201477958    -0.7654654507
   57      C      -0.8239338079     1.9155301049    -1.0204822354
   58      C       0.0029672353     1.8320938595    -2.1498826952
   59      H       0.2323487841     0.8664344509    -2.5838683290
   60      C       0.5526618710     2.9867153179    -2.6896672279
   61      H       1.1749692398     2.9156079180    -3.5764276643
   62      C       0.3314266376     4.2274004227    -2.0800252213
   63      H       0.7799909189     5.1284193641    -2.4872116962
   64      C      -0.4279771920     4.2927572312    -0.9136751988
   65      H      -0.5741310178     5.2446388046    -0.4117346723
   66      C      -1.0037191933     3.1472421684    -0.3722653004
   67      H      -1.5518428730     3.1977525311     0.5602275933
 ----------------------------------------------------------------
 Nuclear Repulsion Energy =        4569.49579034 hartrees
 There are      139 alpha and      138 beta electrons
 Discretize the solute cavity surface with Lebedev spheres
	Using 194 Lebedev grid points for each H atom
	Using 194 Lebedev grid points for other atoms
	Atomic van der Waals radii (UFF set) will be scaled by 1.10
 Using smooth SwiG surface discretization
 Remove points where switching function is < 1.0e-08
 Keep 5058 surface tesserae and discard 7940 interior tesserae
 Molecular Surface Area = 603.357 Angst**2

 Nucleus-field energy     = 3.3623252650e-09 hartrees
 Requested basis set is def2-SVPD
 There are 426 shells and 1006 basis functions
 A cutoff of  1.0D-16 yielded  76812 shell pairs
 There are    429100 function pairs (    496953 Cartesian)
 Smallest overlap matrix eigenvalue = 3.78E-06
 Guess MOs from SCF MO coefficient file

 -----------------------------------------------------------------------
  General SCF calculation program by
  Eric Jon Sundstrom, Paul Horn, Yuezhi Mao, Dmitri Zuev, Alec White,
  David Stuck, Shaama M.S., Shane Yost, Joonho Lee, David Small,
  Daniel Levine, Susi Lehtola, Hugh Burton, Evgeny Epifanovsky,
  Bang C. Huynh
 -----------------------------------------------------------------------
 Exchange:  B97M-V      Correlation:  B97M-V
 Using SG-3 standard quadrature grid
 Nonlocal Correlation:  VV10 with C = 0.0100 and b = 6.00 and scale = 1.00000
 Grid used for NLC:  SG-1 standard quadrature
 A unrestricted SCF calculation will be
 performed using Roothaan-Hall, DIIS
 SCF converges when DIIS error is below 1.0e-08
 ---------------------------------------
  Cycle       Energy         DIIS error
 ---------------------------------------
    1   -2183.9865701792      7.65e-04  Roothaan Step
 ---------------------------------------
  Cycle       Energy         DIIS error
 ---------------------------------------
    1   -2184.0227431443      1.76e-04  
    2   -2183.9139216217      4.59e-04  
    3   -2184.0483047275      9.94e-05  
    4   -2184.0535036605      6.14e-05  
    5   -2184.0558255236      2.99e-05  
    6   -2184.0563414303      1.34e-05  
    7   -2184.0563940768      1.11e-05  
    8   -2184.0564864131      3.17e-06  
    9   -2184.0564909429      2.15e-06  
   10   -2184.0564943461      9.72e-07  
   11   -2184.0564950330      4.64e-07  
   12   -2184.0564952188      2.27e-07  
   13   -2184.0564952635      1.45e-07  
   14   -2184.0564952875      6.43e-08  
   15   -2184.0564952929      3.94e-08  
   16   -2184.0564952947      1.97e-08  
   17   -2184.0564952949      1.07e-08  
   18   -2184.0564952950      3.93e-09  Convergence criterion met
 ---------------------------------------
 SCF time:   CPU 34700.00s  wall 1731.00s 
<S^2> =          0.755504451

************** Final PCM Free Energy Summary **************
 G_electrostatic  =      -0.01442980 hartree =      -9.05483616 kcal/mol
 G_cavitation     =       0.00000000 hartree =       0.00000000 kcal/mol
 G_dispersion     =       0.00000000 hartree =       0.00000000 kcal/mol
 G_repulsion      =       0.00000000 hartree =       0.00000000 kcal/mol
 --------------------------------------------------
 Non-electrostatic Free Energy =       0.00000000 hartree =       0.00000000 kcal/mol
 Total                         =      -0.01442980 hartree =      -9.05483616 kcal/mol
 --------------------------------------------------
 SCF Energy (H0 + V/2)                       =   -2184.05649530 
 Solute Internal Energy (H0)                 =   -2184.04206550 
 Total Free Energy (H0 + V/2 + non-elec)     =   -2184.05649530 hartree
                                             = -1370516.13599670 kcal/mol
***********************************************************

 SCF   energy in the final basis set =    -2184.0564952950
 Total energy in the final basis set =    -2184.0564952950
 
 --------------------------------------------------------------
 
                    Orbital Energies (a.u.)
 --------------------------------------------------------------
 
 Alpha MOs
 -- Occupied --
-89.0400 -89.0377 -10.2503 -10.2461 -10.2400 -10.2282 -10.2213 -10.2191
-10.2175 -10.2161 -10.2141 -10.2122 -10.2119 -10.2107 -10.2106 -10.2102
-10.2093 -10.2089 -10.2084 -10.2066 -10.2038 -10.2031 -10.2031 -10.2011
-10.2006 -10.1999 -10.1991 -10.1988 -10.1964 -10.1944 -10.1939 -10.1936
-10.1915 -10.1847 -10.1835 -10.1804 -10.1704 -10.1364  -8.0660  -8.0608
 -5.9416  -5.9400  -5.9361  -5.9353  -5.9345  -5.9301  -0.8812  -0.8716
 -0.8520  -0.8409  -0.8352  -0.8284  -0.8018  -0.7984  -0.7458  -0.7435
 -0.7389  -0.7369  -0.7352  -0.7283  -0.7255  -0.7232  -0.7230  -0.6995
 -0.6827  -0.6765  -0.6064  -0.6039  -0.5979  -0.5956  -0.5926  -0.5870
 -0.5809  -0.5791  -0.5767  -0.5586  -0.5553  -0.5429  -0.5159  -0.5063
 -0.5006  -0.4998  -0.4855  -0.4767  -0.4573  -0.4526  -0.4509  -0.4488
 -0.4460  -0.4402  -0.4355  -0.4318  -0.4288  -0.4275  -0.4220  -0.4198
 -0.4156  -0.4142  -0.4112  -0.4100  -0.4085  -0.4041  -0.3985  -0.3965
 -0.3858  -0.3820  -0.3728  -0.3685  -0.3611  -0.3584  -0.3522  -0.3489
 -0.3486  -0.3443  -0.3429  -0.3393  -0.3359  -0.3344  -0.3311  -0.3302
 -0.3264  -0.3231  -0.3178  -0.3015  -0.2962  -0.2681  -0.2617  -0.2593
 -0.2557  -0.2521  -0.2477  -0.2468  -0.2414  -0.2404  -0.2291  -0.2286
 -0.2161  -0.1546  -0.0819
 -- Virtual --
 -0.0757  -0.0682  -0.0633  -0.0611  -0.0564  -0.0514  -0.0443  -0.0422
 -0.0399  -0.0336  -0.0160  -0.0133  -0.0090   0.0010   0.0062   0.0079
  0.0142   0.0168   0.0223   0.0261   0.0291   0.0319   0.0343   0.0376
  0.0419   0.0451   0.0463   0.0485   0.0502   0.0530   0.0548   0.0572
  0.0611   0.0659   0.0672   0.0703   0.0731   0.0749   0.0800   0.0809
  0.0834   0.0879   0.0891   0.0920   0.0935   0.0958   0.1003   0.1024
  0.1057   0.1086   0.1102   0.1134   0.1162   0.1192   0.1198   0.1225
  0.1258   0.1292   0.1307   0.1322   0.1349   0.1386   0.1408   0.1436
  0.1463   0.1474   0.1503   0.1522   0.1539   0.1551   0.1575   0.1603
  0.1624   0.1634   0.1680   0.1698   0.1734   0.1751   0.1772   0.1784
  0.1838   0.1854   0.1862   0.1874   0.1904   0.1943   0.1960   0.1968
  0.1985   0.1991   0.2036   0.2052   0.2071   0.2110   0.2112   0.2162
  0.2172   0.2213   0.2239   0.2248   0.2280   0.2287   0.2301   0.2332
  0.2341   0.2370   0.2384   0.2396   0.2402   0.2430   0.2447   0.2457
  0.2486   0.2501   0.2538   0.2550   0.2572   0.2584   0.2594   0.2651
  0.2659   0.2667   0.2691   0.2702   0.2725   0.2759   0.2791   0.2818
  0.2840   0.2870   0.2902   0.2920   0.2936   0.2958   0.2985   0.3009
  0.3022   0.3059   0.3070   0.3100   0.3107   0.3122   0.3152   0.3164
  0.3192   0.3204   0.3231   0.3242   0.3252   0.3280   0.3316   0.3331
  0.3379   0.3396   0.3405   0.3419   0.3425   0.3465   0.3472   0.3490
  0.3516   0.3529   0.3537   0.3561   0.3576   0.3584   0.3593   0.3639
  0.3654   0.3660   0.3691   0.3698   0.3711   0.3733   0.3749   0.3768
  0.3798   0.3811   0.3816   0.3818   0.3829   0.3844   0.3858   0.3880
  0.3885   0.3907   0.3922   0.3933   0.3954   0.3969   0.3985   0.4004
  0.4016   0.4022   0.4045   0.4056   0.4073   0.4100   0.4112   0.4127
  0.4143   0.4154   0.4166   0.4171   0.4201   0.4207   0.4217   0.4251
  0.4268   0.4283   0.4299   0.4310   0.4324   0.4351   0.4359   0.4402
  0.4408   0.4432   0.4436   0.4472   0.4496   0.4506   0.4524   0.4550
  0.4560   0.4574   0.4604   0.4606   0.4650   0.4670   0.4687   0.4696
  0.4728   0.4732   0.4755   0.4782   0.4800   0.4859   0.4878   0.4889
  0.4897   0.4926   0.4938   0.4948   0.4975   0.5008   0.5033   0.5077
  0.5092   0.5110   0.5121   0.5126   0.5172   0.5221   0.5246   0.5261
  0.5292   0.5315   0.5346   0.5366   0.5393   0.5417   0.5434   0.5467
  0.5478   0.5500   0.5518   0.5537   0.5553   0.5579   0.5626   0.5634
  0.5662   0.5671   0.5717   0.5735   0.5749   0.5772   0.5782   0.5823
  0.5827   0.5868   0.5870   0.5897   0.5933   0.5938   0.5946   0.5980
  0.6019   0.6031   0.6045   0.6054   0.6091   0.6103   0.6138   0.6157
  0.6173   0.6177   0.6215   0.6224   0.6255   0.6272   0.6277   0.6302
  0.6329   0.6344   0.6350   0.6368   0.6402   0.6412   0.6465   0.6477
  0.6492   0.6555   0.6564   0.6585   0.6611   0.6632   0.6661   0.6712
  0.6725   0.6749   0.6780   0.6791   0.6834   0.6859   0.6873   0.6903
  0.6957   0.6981   0.7016   0.7026   0.7063   0.7105   0.7122   0.7145
  0.7168   0.7191   0.7224   0.7281   0.7288   0.7306   0.7361   0.7387
  0.7400   0.7430   0.7450   0.7472   0.7493   0.7498   0.7547   0.7578
  0.7619   0.7637   0.7676   0.7692   0.7737   0.7748   0.7794   0.7821
  0.7855   0.7877   0.7881   0.7891   0.7967   0.7978   0.7981   0.8004
  0.8026   0.8060   0.8088   0.8102   0.8127   0.8130   0.8165   0.8186
  0.8228   0.8231   0.8270   0.8303   0.8322   0.8330   0.8370   0.8424
  0.8427   0.8482   0.8498   0.8565   0.8570   0.8605   0.8629   0.8676
  0.8713   0.8737   0.8772   0.8787   0.8795   0.8852   0.8878   0.8918
  0.8947   0.8993   0.9025   0.9062   0.9121   0.9148   0.9194   0.9207
  0.9284   0.9353   0.9398   0.9457   0.9468   0.9490   0.9529   0.9596
  0.9613   0.9651   0.9708   0.9738   0.9775   0.9814   0.9859   0.9903
  0.9932   0.9954   0.9967   0.9999   1.0049   1.0095   1.0118   1.0133
  1.0151   1.0176   1.0206   1.0236   1.0271   1.0304   1.0335   1.0381
  1.0387   1.0428   1.0463   1.0530   1.0553   1.0604   1.0648   1.0691
  1.0759   1.0800   1.0850   1.0909   1.0934   1.0972   1.1008   1.1080
  1.1103   1.1150   1.1166   1.1216   1.1252   1.1304   1.1321   1.1351
  1.1395   1.1418   1.1457   1.1499   1.1516   1.1542   1.1580   1.1608
  1.1626   1.1644   1.1669   1.1697   1.1772   1.1789   1.1799   1.1883
  1.1896   1.1950   1.1983   1.2010   1.2029   1.2080   1.2126   1.2192
  1.2217   1.2232   1.2265   1.2298   1.2307   1.2361   1.2427   1.2443
  1.2530   1.2541   1.2582   1.2613   1.2633   1.2656   1.2678   1.2720
  1.2733   1.2765   1.2797   1.2835   1.2911   1.2926   1.2953   1.2993
  1.3025   1.3045   1.3069   1.3097   1.3149   1.3181   1.3219   1.3238
[...]
     29 H                     0.548959       0.000078
     30 C                    -0.448240      -0.001721
     31 H                     0.257027       0.000278
     32 C                     0.624920       0.003064
     33 H                     0.223044       0.003462
     34 S                    -1.632464       0.157536
     35 C                    -1.100291      -0.066263
     36 C                     0.536701       0.262501
     37 H                     0.307272      -0.014018
     38 C                    -0.366367      -0.160437
     39 H                     0.359937       0.005840
     40 C                    -0.214637       0.330750
     41 H                     0.499082      -0.043941
     42 C                    -0.359804      -0.149700
     43 H                     0.157678       0.009908
     44 C                     0.477932       0.228050
     45 H                     0.267440       0.004193
     46 C                    -1.243582       0.010139
     47 C                     0.550973       0.131450
     48 H                     0.449356       0.007851
     49 C                    -0.436842      -0.068177
     50 H                     0.301691       0.004596
     51 C                    -0.264803       0.171419
     52 H                     0.493125      -0.024312
     53 C                    -0.313174      -0.085347
     54 H                     0.365946       0.005809
     55 C                     0.395518       0.173123
     56 H                     0.144903       0.002587
     57 C                    -0.946810      -0.002090
     58 C                     0.408459       0.004141
     59 H                     0.081629       0.023781
     60 C                    -0.380854      -0.006024
     61 H                     0.164137      -0.002360
     62 C                    -0.145666       0.034240
     63 H                     0.608274      -0.003266
     64 C                    -0.379061      -0.018963
     65 H                     0.387802       0.001067
     66 C                     0.582435       0.027060
     67 H                     0.283517       0.003868
  --------------------------------------------------------
  Sum of atomic charges =     0.000000
  Sum of spin   charges =     1.000000

  Building new vdw surfaces
         Merz-Kollman RESP Net Atomic Charges

     Atom                 Charge (a.u.)
  ----------------------------------------
      1 S                    -0.334420
      2 C                     0.234465
      3 C                    -0.178450
      4 H                     0.163297
      5 C                    -0.170501
      6 H                     0.157971
      7 C                    -0.084329
      8 H                     0.145798
      9 C                    -0.199320
     10 H                     0.169559
     11 C                    -0.134119
     12 H                     0.164673
     13 C                     0.895494
     14 C                    -0.958282
     15 C                     0.254538
     16 H                     0.044180
     17 C                    -0.397758
     18 H                     0.155899
     19 C                     0.064272
     20 H                     0.106528
     21 C                    -0.579977
     22 H                     0.182809
     23 C                     0.342222
     24 C                    -0.305391
     25 H                     0.180103
     26 C                    -0.089475
     27 H                     0.143586
     28 C                    -0.136138
     29 H                     0.143731
     30 C                    -0.127045
     31 H                     0.148310
     32 C                    -0.189674
     33 H                     0.182771
     34 S                    -0.458142
     35 C                     0.551103
     36 C                    -0.430841
     37 H                     0.176339
     38 C                    -0.089012
     39 H                     0.134563
     40 C                    -0.224047
     41 H                     0.133903
     42 C                    -0.092172
     43 H                     0.135995
     44 C                    -0.389386
     45 H                     0.201428
     46 C                     0.548955
     47 C                    -0.430841
     48 H                     0.225772
     49 C                    -0.057848
     50 H                     0.126703
     51 C                    -0.224047
     52 H                     0.140701
     53 C                    -0.078064
     54 H                     0.135995
     55 C                    -0.389386
     56 H                     0.166561
     57 C                     0.219912
     58 C                    -0.109626
     59 H                     0.147773
     60 C                    -0.210693
     61 H                     0.153136
     62 C                    -0.085033
     63 H                     0.130640
     64 C                    -0.162909
     65 H                     0.156239
     66 C                    -0.207231
     67 H                     0.158234
  ----------------------------------------
  Sum of atomic charges =     0.000000

  Related Dipole Moment =     8.2080 (X  5.4084 Y -3.2083 Z -5.2751)

 -----------------------------------------------------------------
                    Cartesian Multipole Moments
 -----------------------------------------------------------------
    Charge (ESU x 10^10)
                -0.0000
    Dipole Moment (Debye)
         X       5.4300      Y      -3.1657      Z      -5.2675
       Tot       8.2008
    Quadrupole Moments (Debye-Ang)
        XX    -224.5126     XY      -2.3663     YY    -213.3942
        XZ     -11.8885     YZ     -10.7008     ZZ    -239.0493
    Octopole Moments (Debye-Ang^2)
       XXX     138.5289    XXY      32.5495    XYY      27.9995
       YYY     -56.0875    XXZ     -32.0963    XYZ     -13.9608
       YYZ     -47.3700    XZZ     -11.4564    YZZ     -41.6494
       ZZZ     -58.3566
    Hexadecapole Moments (Debye-Ang^3)
      XXXX  -10069.9774   XXXY      96.9293   XXYY   -2841.6660
      XYYY     346.4190   YYYY   -5837.1191   XXXZ    -548.4078
      XXYZ    -190.6659   XYYZ     -91.6338   YYYZ    -363.1063
      XXZZ   -2872.5050   XYZZ      36.1877   YYZZ   -2096.8409
      XZZZ    -207.3999   YZZZ    -395.3394   ZZZZ   -6067.0192
 -----------------------------------------------------------------
 Calculating analytic gradient of the SCF energy
 Gradient of SCF Energy
            1           2           3           4           5           6
    1  -0.0064833   0.0072842  -0.0027648   0.0000310  -0.0010162  -0.0011628
    2   0.0012600   0.0055852   0.0018112   0.0015744  -0.0007960  -0.0067647
    3  -0.0033259   0.0058417   0.0026558   0.0063173   0.0015542   0.0081778
            7           8           9          10          11          12
    1  -0.0044645  -0.0029553   0.0006861   0.0026178  -0.0016497   0.0033010
    2  -0.0064229  -0.0116093   0.0053747   0.0001099   0.0003422   0.0067591
    3  -0.0011389  -0.0044081  -0.0049022  -0.0104604  -0.0013164  -0.0004148
           13          14          15          16          17          18
    1  -0.0004107   0.0031961  -0.0031749  -0.0015981  -0.0001536   0.0005702
    2   0.0027962   0.0080982   0.0054794  -0.0083033  -0.0025005  -0.0014114
    3   0.0047650  -0.0065093   0.0100544  -0.0041304  -0.0012828  -0.0041826
           19          20          21          22          23          24
    1   0.0007374   0.0010717  -0.0031314   0.0007024  -0.0117253  -0.0039153
    2   0.0008371   0.0008353  -0.0007709  -0.0023894   0.0030965  -0.0025446
    3   0.0050515   0.0004110  -0.0052686   0.0011429   0.0042852  -0.0032745
           25          26          27          28          29          30
    1  -0.0012503  -0.0004108   0.0084827   0.0058631   0.0096437  -0.0039959
    2  -0.0080017  -0.0036769  -0.0083292   0.0032654   0.0051079   0.0024773
    3   0.0005327   0.0000024  -0.0024069  -0.0014593  -0.0026489   0.0016985
           31          32          33          34          35          36
    1  -0.0007490  -0.0049431  -0.0004300   0.0232563  -0.0064884   0.0065315
    2   0.0081717  -0.0000889   0.0022484   0.0037201   0.0065690  -0.0011870
    3   0.0000335   0.0013878  -0.0004401  -0.0025014   0.0108529  -0.0041688
           37          38          39          40          41          42
    1  -0.0004553   0.0012324  -0.0014229  -0.0014450   0.0010443   0.0010336
    2   0.0007623   0.0050757  -0.0000789  -0.0042144  -0.0009306   0.0030466
    3  -0.0031226   0.0013765  -0.0019173  -0.0023985  -0.0022851   0.0015035
           43          44          45          46          47          48
    1  -0.0007983  -0.0008221   0.0031469  -0.0109668   0.0049538  -0.0074141
    2  -0.0028381  -0.0054658  -0.0032621  -0.0142726   0.0066855   0.0016508
    3   0.0011087   0.0001969   0.0026339   0.0088433  -0.0050429   0.0007838
           49          50          51          52          53          54
    1   0.0022798  -0.0007713   0.0032318   0.0029335   0.0008856   0.0001627
    2  -0.0009104  -0.0012452  -0.0007647   0.0014976   0.0008685  -0.0011566
    3  -0.0011296  -0.0038073   0.0026544  -0.0009813   0.0000292   0.0006469
           55          56          57          58          59          60
    1  -0.0002567  -0.0042041  -0.0087121  -0.0007636   0.0036564  -0.0006670
    2   0.0051384  -0.0008526   0.0046689  -0.0040008  -0.0031218   0.0018886
    3   0.0036085  -0.0002935   0.0011238   0.0039763  -0.0018852  -0.0025202
           61          62          63          64          65          66
    1   0.0040575  -0.0009826   0.0027818  -0.0018320   0.0003385  -0.0027165
    2  -0.0018514   0.0037732   0.0047048  -0.0017491  -0.0007773  -0.0057720
    3  -0.0064895   0.0028148  -0.0025473   0.0026553   0.0024945   0.0015879
           67
    1   0.0013899
    2   0.0027813
    3  -0.0041424
 Max gradient component =       2.326E-02
 RMS gradient           =       4.486E-03
 Computing fast CPCM-SWIG gradient
 Updating gradient with PCM contributions...
 -- total gradient after adding PCM contribution --
---------------------------------------------------
  Atom         X              Y              Z     
---------------------------------------------------
   1      -0.006833       0.003315      -0.002806
   2       0.006226       0.002772       0.001563
   3      -0.002061       0.000669       0.000399
   4      -0.000273       0.000239       0.004051
   5      -0.000330      -0.002666       0.000098
   6      -0.001078      -0.002651       0.002073
   7      -0.001775      -0.001903       0.001388
   8      -0.001207      -0.003563      -0.001075
   9      -0.000004       0.002595      -0.002895
  10       0.000467      -0.000455      -0.004118
  11      -0.001765      -0.002283      -0.001037
  12       0.001289       0.003556       0.001122
  13       0.001342       0.000055      -0.004942
  14      -0.002144       0.003430      -0.002965
  15      -0.000214       0.003568       0.000779
  16      -0.001406       0.003113       0.002034
  17      -0.000502       0.000131      -0.000141
  18      -0.000403       0.000413       0.004085
  19       0.001619      -0.002489       0.003771
  20       0.001837      -0.002830       0.001818
  21      -0.002210      -0.002556      -0.002945
  22       0.002295      -0.002882      -0.000447
  23      -0.008181       0.000235       0.002560
  24      -0.001800      -0.001801      -0.002001
  25      -0.000141      -0.003732       0.000398
  26       0.000124      -0.002236      -0.000049
  27       0.003273      -0.002360      -0.000983
  28       0.004164       0.000222      -0.001085
  29       0.002971       0.001901      -0.000988
  30      -0.000394       0.002613       0.000836
  31       0.000781       0.003955      -0.000283
  32      -0.001348      -0.000503       0.000305
  33      -0.002310       0.003661       0.001489
  34       0.023887       0.002966      -0.006388
  35      -0.004162       0.006345       0.013014
  36       0.005548      -0.000888      -0.005882
  37      -0.001573       0.003172      -0.001262
  38       0.001496       0.006116       0.000257
  39      -0.000963       0.000257      -0.004108
  40      -0.002409      -0.006090      -0.003994
  41      -0.001032      -0.002200      -0.002657
  42       0.002686       0.000201       0.002810
  43      -0.000531      -0.004025       0.000944
  44      -0.001670      -0.004009       0.000107
  45       0.000026      -0.001858       0.004005
  46      -0.001323      -0.007354       0.002367
  47       0.000455       0.000719      -0.000742
  48       0.003134      -0.002094       0.002254
  49       0.001423      -0.000936       0.001576
  50      -0.001623      -0.001736       0.003604
  51      -0.003174      -0.000403       0.004775
  52      -0.003501       0.000875       0.001276
  53       0.000050       0.001539      -0.004025
  54      -0.003191       0.002435      -0.001700
  55      -0.000512       0.003848       0.000887
  56      -0.000358       0.000243      -0.004752
  57      -0.009263      -0.004476      -0.002422
  58       0.000006      -0.000778      -0.000167
  59       0.002183      -0.002869      -0.001038
  60       0.000411       0.001029      -0.001802
  61       0.002280      -0.000645      -0.003498
  62       0.001052       0.003226      -0.000419
  63       0.001995       0.002379      -0.001903
  64      -0.000843       0.000713       0.002550
  65      -0.000021       0.003466       0.001374
  66       0.001494      -0.001186       0.001667
  67      -0.001986       0.000481       0.003284
---------------------------------------------------
 Number of fixed atoms: 0
 Gradient time:  CPU 2023.53 s  wall 231.99 s

     Step 3	:
        Energy is -2184.0727068904
                            Maximum         Tolerance       Converged?
         Gradient           9.48243831e-03	3.00000000e-04	false
         Displacement       2.10952491e-01	1.20000000e-03	false
         Energy change      8.36233365e-03	1.00000000e-06	false


	OPTIMIZATION CYCLE:	4

 Scaling Magnitude of Eigenvalues
 	Minimum: -25.00000000	 Maximum: 25.00000000
 383 Hessian Eigenvalues to form next step
   0.01061087   0.10000000   0.10000000   0.10000000   0.10000000
   0.10000000   0.10000000   0.10000000   0.10000000   0.10000000
   0.10000000   0.10000000   0.10000000   0.10000000   0.10000000
   0.10000000   0.10000000   0.10000000   0.10000000   0.10000000
   0.10000000   0.10000000   0.10000000   0.10000000   0.10000000
   0.10000000   0.10000000   0.10000000   0.10000000   0.10000000
   0.10000000   0.10000000   0.10000000   0.10000000   0.10000000
   0.10000000   0.10000000   0.10000000   0.10000000   0.10000000
   0.10000000   0.10000000   0.10000000   0.10000000   0.10000000
   0.10000000   0.10000000   0.10000000   0.10000000   0.10000000
   0.10000000   0.10000000   0.10000000   0.10000000   0.10000000
   0.10000000   0.10000000   0.10000000   0.10000000   0.10000000
   0.10000000   0.10000000   0.10000000   0.10000000   0.10000000
   0.10000000   0.10000000   0.10000000   0.10000000   0.10000000
   0.10000000   0.10000000   0.10000000   0.10000000   0.10000000
   0.10000000   0.10000000   0.10000000   0.10000000   0.10000000
   0.10000000   0.10000000   0.10000000   0.10000000   0.10000000
   0.10000000   0.10000000   0.10000000   0.10000000   0.10000000
   0.10000000   0.10000000   0.10000000   0.10000000   0.10000000
   0.10000000   0.10000000   0.10000000   0.10000000   0.10000000
   0.10000000   0.10000000   0.10000000   0.10000000   0.10000000
   0.10000000   0.10000000   0.10000000   0.10000000   0.10000000
   0.10000000   0.10000000   0.10000000   0.10000000   0.10000000
   0.10000000   0.10000000   0.10000000   0.10000000   0.10000000
   0.10000000   0.10000000   0.10000000   0.10000000   0.10000000
   0.10000000   0.10000000   0.10000000   0.10000000   0.10000000
   0.10000000   0.10000000   0.10000000   0.10000000   0.10000000
   0.10000000   0.10000000   0.10000000   0.10000000   0.10000000
   0.10000000   0.10000000   0.10000000   0.10000000   0.10000000
   0.10000000   0.10000000   0.10000000   0.10000000   0.10000000
   0.10000000   0.10000000   0.10000000   0.10000000   0.10000000
   0.10000000   0.10000000   0.10000000   0.10000000   0.10000000
   0.10000000   0.10000000   0.10000000   0.10000000   0.10000000
   0.10000000   0.10000000   0.10000000   0.10000000   0.10000000
   0.10000000   0.10000000   0.10000000   0.10000000   0.10000000
   0.10000000   0.10000000   0.10000000   0.10000000   0.10000000
   0.10000000   0.10000000   0.10000000   0.10000000   0.10000000
   0.10000000   0.10000000   0.10031029   0.10175354   0.10770368
   0.19332537   0.20000000   0.20000000   0.20000000   0.20000000
   0.20000000   0.20000000   0.20000000   0.20000000   0.20000000
   0.20000000   0.20000000   0.20000000   0.20000000   0.20000000
   0.20000000   0.20000000   0.20000000   0.20000000   0.20000000
   0.20000000   0.20000000   0.20000000   0.20000000   0.20000000
   0.20000000   0.20000000   0.20000000   0.20000000   0.20000000
   0.20000000   0.20000000   0.20000000   0.20000000   0.20000000
   0.20000000   0.20000000   0.20000000   0.20000000   0.20000000
   0.20000000   0.20000000   0.20000000   0.20000000   0.20000000
   0.20000000   0.20000000   0.20000000   0.20000000   0.20000000
   0.20000000   0.20000000   0.20000000   0.20000000   0.20000000
   0.20000000   0.20000000   0.20000000   0.20000000   0.20000000
   0.20000000   0.20000000   0.20000000   0.20000000   0.20000000
   0.20000000   0.20000000   0.20000000   0.20000000   0.20000000
   0.20000000   0.20000000   0.20000000   0.20000000   0.20000000
   0.20000000   0.20000000   0.20000000   0.20000000   0.20000000
   0.20000000   0.20000000   0.20000000   0.20000000   0.20000000
   0.20000000   0.20000000   0.20000000   0.20000000   0.20000000
   0.20000000   0.20000000   0.20000000   0.20000000   0.20000000
   0.20000000   0.20000000   0.20000000   0.20000000   0.20000000
   0.20000000   0.20000000   0.20000000   0.20000000   0.20000000
   0.20000000   0.20000000   0.20000000   0.20000000   0.20000000
   0.20000000   0.20000000   0.20000000   0.20000000   0.20000000
   0.20000000   0.20000000   0.20202350   0.20649222   0.20942039
   0.41185971   0.50000000   0.50000000   0.50000000   0.50000000
   0.50000000   0.50000000   0.50000000   0.50000000   0.50000000
   0.50000000   0.50000000   0.50000000   0.50000000   0.50000000
   0.50000000   0.50000000   0.50000000   0.50000000   0.50000000
   0.50000000   0.50000000   0.50000000   0.50000000   0.50000000
   0.50000000   0.50000000   0.50000000   0.50000000   0.50000000
   0.50000000   0.50000000   0.50000000   0.50000000   0.50000000
   0.50000000   0.50000000   0.50000000   0.50000000   0.50000000
   0.50000000   0.50000000   0.50000000   0.50000000   0.50000000
   0.50000000   0.50000000   0.50000000   0.50000000   0.50000000
   0.50000000   0.50000000   0.50000000   0.50000000   0.50000000
   0.50000000   0.50000000   0.50000000   0.50000000   0.50000000
   0.50000000   0.50000000   0.50000000   0.50000000   0.50000000
   0.50000000   0.50000000   0.50000000   0.50000000   0.50000000
   0.50326952   0.52745981   0.88049963

 Minimum Search taking a RFO step
 Searching for Lambda that minimizes along all modes
	Value of Lambda  -0.00835815
	Norm of Stepsize  0.53229527
	RMS of Stepsize  0.02719902

	Performing Iterative Coordinate Back-Transformation

	  Starting from Previous Position

	  iter:	0	rms: 1.5050166285e-01	maxdev: 5.0300960445e-01
	  iter:	1	rms: 8.1702510397e-03	maxdev: 2.6313253171e-02
	  iter:	2	rms: 2.6421162066e-04	maxdev: 7.4564868159e-04
	  iter:	3	rms: 1.9866767735e-05	maxdev: 8.8059535466e-05
	  iter:	4	rms: 1.0422955862e-06	maxdev: 3.2057687426e-06
 Q-Chem fatal error occurred in module progman/main.C, line 185:

  Problem running Q-Chem: pinv(): svd failed



 Please submit a crash report at q-chem.com/reporter 
 
 
