
Running Job 1 of 1 mol.qin
qchem mol.qin_109805.0 /tmp/scratch/ 0
/clusterfs/mp/software/qchem6.0/exe/qcprog.exe_s mol.qin_109805.0 /tmp/scratch/
                  Welcome to Q-Chem
     A Quantum Leap Into The Future Of Chemistry


 Q-Chem 6.0, Q-Chem, Inc., Pleasanton, CA (2022)

 E. Epifanovsky,  A. T. B. Gilbert,  Xintian Feng,  Joonho Lee,  Yuezhi Mao,  
 N. Mardirossian,  P. Pokhilko,  A. White,  M. Wormit,  M. P. Coons,  
 A. L. Dempwolff,  Zhengting Gan,  D. Hait,  P. R. Horn,  L. D. Jacobson,  
 I. Kaliman,  J. Kussmann,  A. W. Lange,  Ka Un Lao,  D. S. Levine,  Jie Liu,  
 S. C. McKenzie,  A. F. Morrison,  K. Nanda,  F. Plasser,  D. R. Rehn,  
 M. L. Vidal,  Zhi-Qiang You,  Ying Zhu,  B. Alam,  B. Albrecht,  
 A. Aldossary,  E. Alguire,  J. H. Andersen,  V. Athavale,  D. Barton,  
 K. Begam,  A. Behn,  N. Bellonzi,  Y. A. Bernard,  E. J. Berquist,  
 H. Burton,  A. Carreras,  K. Carter-Fenk,  Romit Chakraborty,  
 Chandrima Chakravarty,  Junhan Chen,  A. D. Chien,  K. D. Closser,  
 V. Cofer-Shabica,  L. Cunha,  S. Dasgupta,  Jia Deng,  M. de Wergifosse,  
 M. Diedenhofen,  Hainam Do,  S. Ehlert,  Po-Tung Fang,  S. Fatehi,  
 Qingguo Feng,  T. Friedhoff,  B. Ganoe,  J. Gayvert,  Qinghui Ge,  
 G. Gidofalvi,  M. Goldey,  J. Gomes,  C. Gonzalez-Espinoza,  S. Gulania,  
 A. Gunina,  J. A. Gyamfi,  M. W. D. Hanson-Heine,  P. H. P. Harbach,  
 A. W. Hauser,  M. F. Herbst,  M. Hernandez Vera,  M. Hodecker,  
 Z. C. Holden,  S. Houck,  Xunkun Huang,  Kerwin Hui,  B. C. Huynh,  
 K. Ikeda,  M. Ivanov,  Hyunjun Ji,  Zuxin Jin,  Hanjie Jiang,  B. Kaduk,  
 S. Kaehler,  R. Kang,  K. Khistyaev,  Jaehoon Kim,  Yongbin Kim,  
 P. Klunzinger,  Z. Koczor-Benda,  Joong Hoon Koh,  D. Kosenkov,  
 Saikiran Kotaru,  L. Koulias,  T. Kowalczyk,  C. M. Krauter,  K. Kue,  
 A. Kunitsa,  T. Kus,  A. Landau,  K. V. Lawler,  D. Lefrancois,  S. Lehtola,  
 Rain Li,  Shaozhi Li,  Yi-Pei Li,  Jiashu Liang,  M. Liebenthal,  
 Hung-Hsuan Lin,  You-Sheng Lin,  Fenglai Liu,  Kuan-Yu Liu,  
 M. Loipersberger,  A. Luenser,  C. Malbon,  A. Manjanath,  P. Manohar,  
 E. Mansoor,  S. F. Manzer,  Shan-Ping Mao,  A. V. Marenich,  T. Markovich,  
 S. Mason,  F. Matz,  S. A. Maurer,  P. F. McLaughlin,  M. F. S. J. Menger,  
 J.-M. Mewes,  S. A. Mewes,  P. Morgante,  Mohammad Mostafanejad,  
 J. W. Mullinax,  K. J. Oosterbaan,  G. Paran,  V. Parravicini,  
 Alexander C. Paul,  Suranjan K. Paul,  F. Pavosevic,  Zheng Pei,  S. Prager,  
 E. I. Proynov,  E. Ramos,  B. Rana,  A. E. Rask,  A. Rettig,  R. M. Richard,  
 F. Rob,  E. Rossomme,  T. Scheele,  M. Scheurer,  M. Schneider,  
 P. E. Schneider,  N. Sergueev,  S. M. Sharada,  Hengyuan Shen,  
 W. Skomorowski,  D. W. Small,  C. J. Stein,  Yingli Su,  Yu-Chuan Su,  
 E. J. Sundstrom,  Zhen Tao,  J. Thirman,  Hung-Yi Tsai,  T. Tsuchimochi,  
 N. M. Tubman,  C. Utku,  S. P. Veccham,  O. Vydrov,  J. Wenzel,  
 Jonathan Wong,  J. Witte,  A. Yamada,  Chou-Hsun Yang,  Kun Yao,  
 S. Yeganeh,  S. R. Yost,  A. Zech,  F. Zeller,  Igor Ying Zhang,  
 Xing Zhang,  Yu Zhang,  D. Zuev,  A. Aspuru-Guzik,  A. T. Bell,  
 N. A. Besley,  K. B. Bravaya,  B. R. Brooks,  D. Casanova,  Jeng-Da Chai,  
 Hsing-Ta Chen,  S. Coriani,  C. J. Cramer,  A. E. DePrince, III,  
 R. A. DiStasio Jr.,  A. Dreuw,  B. D. Dunietz,  T. R. Furlani,  
 W. A. Goddard III,  S. Grimme,  S. Hammes-Schiffer,  T. Head-Gordon,  
 W. J. Hehre,  Chao-Ping Hsu,  T.-C. Jagau,  Yousung Jung,  A. Klamt,  
 Jing Kong,  D. S. Lambrecht,  Xiangyuan Li,  WanZhen Liang,  N. J. Mayhall,  
 C. W. McCurdy,  J. B. Neaton,  T. Neudecker,  C. Ochsenfeld,  
 J. A. Parkhill,  R. Peverati,  V. A. Rassolov,  Haisheng Ren,  Yihan Shao,  
 L. V. Slipchenko,  R. P. Steele,  J. E. Subotnik,  A. J. W. Thom,  
 A. Tkatchenko,  D. G. Truhlar,  T. Van Voorhis,  Fan Wang,  
 T. A. Wesolowski,  K. B. Whaley,  H. L. Woodcock III,  P. M. Zimmerman,  
 S. Faraji,  P. M. W. Gill,  M. Head-Gordon,  J. M. Herbert,  A. I. Krylov

 Contributors to earlier versions of Q-Chem not listed above: 
 R. D. Adamson,  B. Austin,  R. Baer,  J. Baker,  G. J. O. Beran,  
 K. Brandhorst,  S. T. Brown,  E. F. C. Byrd,  Arup K. Chakraborty,  
 G. K. L. Chan,  Chun-Min Chang,  Yunqing Chen,  C.-L. Cheng,  
 Siu Hung Chien,  D. M. Chipman,  D. L. Crittenden,  H. Dachsel,  
 R. J. Doerksen,  A. D. Dutoi,  R. G. Edgar,  J. Fosso-Tande,  
 L. Fusti-Molnar,  D. Ghosh,  A. Ghysels,  A. Golubeva-Zadorozhnaya,  
 J. Gonthier,  M. S. Gordon,  S. R. Gwaltney,  G. Hawkins,  J. E. Herr,  
 A. Heyden,  S. Hirata,  E. G. Hohenstein,  G. Kedziora,  F. J. Keil,  
 C. Kelley,  Jihan Kim,  R. A. King,  R. Z. Khaliullin,  P. P. Korambath,  
 W. Kurlancheek,  A. Laurent,  A. M. Lee,  M. S. Lee,  S. V. Levchenko,  
 Ching Yeh Lin,  D. Liotard,  E. Livshits,  R. C. Lochan,  I. Lotan,  
 L. A. Martinez-Martinez,  P. E. Maslen,  N. Nair,  D. P. O'Neill,  
 D. Neuhauser,  E. Neuscamman,  C. M. Oana,  R. Olivares-Amaya,  R. Olson,  
 T. M. Perrine,  B. Peters,  P. A. Pieniazek,  A. Prociuk,  Y. M. Rhee,  
 J. Ritchie,  M. A. Rohrdanz,  E. Rosta,  N. J. Russ,  H. F. Schaefer III,  
 M. W. Schmidt,  N. E. Schultz,  S. Sharma,  N. Shenvi,  C. D. Sherrill,  
 A. C. Simmonett,  A. Sodt,  T. Stein,  D. Stuck,  K. S. Thanthiriwatte,  
 V. Vanovschi,  L. Vogt,  Tao Wang,  A. Warshel,  M. A. Watson,  
 C. F. Williams,  Q. Wu,  X. Xu,  Jun Yang,  W. Zhang,  Yan Zhao

   Please cite Q-Chem as follows:
  "Software for the frontiers of quantum chemistry:
   An overview of developments in the Q-Chem 5 package"
   J. Chem. Phys. 155, 084801 (2021)
   https://doi.org/10.1063/5.0055522 (open access)

 Q-Chem 6.0.2 for Intel X86 EM64T Linux

 Parts of Q-Chem use Armadillo 9.900.5 (Nocturnal Misbehaviour).
 http://arma.sourceforge.net/

 Q-Chem begins on Mon Dec 19 09:48:21 2022  

 Host: 
0

     Scratch files written to /tmp/scratch//
 Dec722 |scratch|qcdevops|jenkins|workspace|build_RNUM -1
 Processing $rem in /clusterfs/mp/software/qchem6.0/config/preferences:
 Processing $rem in /global/home/users/smblau/.qchemrc:
 Symmetry turned off for PCM/SM12/SMD calculation

 Checking the input file for inconsistencies... 	...done.

--------------------------------------------------------------
User input:
--------------------------------------------------------------
$molecule
-1 1
C     -1.6936745581      0.9451121785      2.1982535634
C     -0.6540703429      0.3515503135      1.8007881557
O     -0.2248985330     -0.1755727412      0.3451261188
C      1.0996438346     -0.6361528561      0.2797956138
H      0.2722584016      0.0938643447      2.3358031093
H     -0.8681366069      1.3047359389      2.8862945965
H      1.2476208386     -1.1645330399     -0.6679363160
H      1.3659794712     -1.3361487097      1.0887126055
H      1.8182339536      0.1999295368      0.3185502941
$end

$rem
job_type = opt
basis = def2-tzvppd
max_scf_cycles = 100
gen_scfman = true
xc_grid = 3
thresh = 14
s2thresh = 16
scf_algorithm = gdm
resp_charges = true
symmetry = false
sym_ignore = true
method = wb97xv
geom_opt_max_cycles = 200
solvent_method = pcm
scf_convergence = 6
$end

$pcm
heavypoints 194
hpoints 194
radii uff
theory cpcm
vdwscale 1.1
$end

$solvent
dielectric 7.23
$end

$geom_opt
initial_hessian = read
max_displacement = 0.15
maxiter = 200
coordinates = redundant
optimization_restart = false
$end
--------------------------------------------------------------
 ----------------------------------------------------------------
             Standard Nuclear Orientation (Angstroms)
    I     Atom           X                Y                Z
 ----------------------------------------------------------------
    1      C      -1.6936745581     0.9451121785     2.1982535634
    2      C      -0.6540703429     0.3515503135     1.8007881557
    3      O      -0.2248985330    -0.1755727412     0.3451261188
    4      C       1.0996438346    -0.6361528561     0.2797956138
    5      H       0.2722584016     0.0938643447     2.3358031093
    6      H      -0.8681366069     1.3047359389     2.8862945965
    7      H       1.2476208386    -1.1645330399    -0.6679363160
    8      H       1.3659794712    -1.3361487097     1.0887126055
    9      H       1.8182339536     0.1999295368     0.3185502941
 ----------------------------------------------------------------
 Nuclear Repulsion Energy =         108.76196445 hartrees
 There are       16 alpha and       16 beta electrons
 Requested basis set is def2-TZVPPD
 There are 88 shells and 236 basis functions

 Total QAlloc Memory Limit  90000 MB
 Mega-Array Size       188 MB
 MEM_STATIC part       192 MB

 -----------------------------------------------------------------------
                STARTING GEOMETRY OPTIMIZER USING LIBOPT3
                by Peter F. McLaughlin, Yu Zhang, Evgeny Epifanovsky
 -----------------------------------------------------------------------

              Initial Energy and Gradient Calculation
  -- Reading Initial Hessian
   -- Checking Topology for Ill-Behaving Coordinates --

 -------------------------------------------
   Coordinate       |  Removed | Additions 
 -------------------------------------------
	Bonds                     0          0
	Angles                    0          0
	Torsions                  0          0
	Co-Linear Type5s          0          0
	Co-Linear Type6s          0          0
 -------------------------------------------
     Done Checking Topology
 ----------------------------------------------------------------
             Standard Nuclear Orientation (Angstroms)
    I     Atom           X                Y                Z
 ----------------------------------------------------------------
    1      C      -1.6936745581     0.9451121785     2.1982535634
    2      C      -0.6540703429     0.3515503135     1.8007881557
    3      O      -0.2248985330    -0.1755727412     0.3451261188
    4      C       1.0996438346    -0.6361528561     0.2797956138
    5      H       0.2722584016     0.0938643447     2.3358031093
    6      H      -0.8681366069     1.3047359389     2.8862945965
    7      H       1.2476208386    -1.1645330399    -0.6679363160
    8      H       1.3659794712    -1.3361487097     1.0887126055
    9      H       1.8182339536     0.1999295368     0.3185502941
 ----------------------------------------------------------------
 Nuclear Repulsion Energy =         108.76196445 hartrees
 There are       16 alpha and       16 beta electrons
 Using C-PCM dielectric factor f(eps) = (eps-1)/eps = 0.861687
 Discretize the solute cavity surface with Lebedev spheres
	Using 194 Lebedev grid points for each H atom
	Using 194 Lebedev grid points for other atoms
	Atomic van der Waals radii (UFF set) will be scaled by 1.10
 Using smooth SwiG surface discretization
 Remove points where switching function is < 1.0e-08
 Keep 843 surface tesserae and discard 903 interior tesserae
 Molecular Surface Area = 122.481 Angst**2


                       Distance Matrix (Angstroms)
             C (  1)   C (  2)   O (  3)   C (  4)   H (  5)   H (  6)
   C (  2)  1.261377
   O (  3)  2.616738  1.606549
   C (  4)  3.739453  2.522794  1.403857
   H (  5)  2.146727  1.100331  2.069434  2.333379
   H (  6)  1.133244  1.460381  3.010416  3.799085  1.752071
   H (  7)  4.617019  3.465478  2.042707  1.095116  3.399610  4.817289
   H (  8)  3.974508  2.726899  2.104935  1.102395  2.190068  3.898313
   H (  9)  4.052417  2.886573  2.077522  1.103135  2.543737  3.876918
             H (  7)   H (  8)
   H (  8)  1.768976
   H (  9)  1.777783  1.776857
 
 Requested basis set is def2-TZVPPD
 There are 88 shells and 236 basis functions
 A cutoff of  1.0D-16 yielded   3851 shell pairs
 There are     28013 function pairs (     35416 Cartesian)
 Smallest overlap matrix eigenvalue = 5.46E-06

 Scale SEOQF with 1.000000e-01/1.000000e-01/1.000000e-01

 Standard Electronic Orientation quadrupole field applied
 Nucleus-field energy     =    -0.0000000048 hartrees
 Guess from superposition of atomic densities
 Warning:  Energy on first SCF cycle will be non-variational
 SAD guess density has 31.000000 electrons

 -----------------------------------------------------------------------
  General SCF calculation program by
  Eric Jon Sundstrom, Paul Horn, Yuezhi Mao, Dmitri Zuev, Alec White,
  David Stuck, Shaama M.S., Shane Yost, Joonho Lee, David Small,
  Daniel Levine, Susi Lehtola, Hugh Burton, Evgeny Epifanovsky,
  Bang C. Huynh
 -----------------------------------------------------------------------
 Exchange:     0.1670 Hartree-Fock + 1.0000 wB97X-V + LR-HF
 Correlation:  1.0000 wB97X-V
 Using SG-3 standard quadrature grid
 Nonlocal Correlation:  VV10 with C = 0.0100 and b = 6.00 and scale = 1.00000
 Grid used for NLC:  SG-1 standard quadrature
 using 40 threads for integral computing
 -------------------------------------------------------
 OpenMP Integral computing Module                
 Release: version 1.0, May 2013, Q-Chem Inc. Pittsburgh 
 -------------------------------------------------------
 C-PCM solvent model [f = (eps-1)/eps], solve by matrix inversion
 A restricted SCF calculation will be
 performed using Roothaan-Hall, GDM
 SCF converges when RMS gradient is below 1.0e-06
 ---------------------------------------
  Cycle       Energy         DIIS error
 ---------------------------------------
    1    -193.0456627670      2.66e-02  Roothaan Step
 ---------------------------------------
  Cycle       Energy        RMS Gradient
 ---------------------------------------
    1    -192.3816114036      5.93e-02   Descent step
    2    -192.4807009262      2.55e-02   Normal BFGS step
    3    -192.5001452735      7.66e-03   Normal BFGS step
    4    -192.5015071544      7.28e-03   Normal BFGS step
    5    -192.5024712946      1.15e-03   Normal BFGS step
    6    -192.5024997555      8.51e-04   Normal BFGS step
    7    -192.5025161177      2.49e-04   Normal BFGS step
    8    -192.5025167999      7.48e-05   Normal BFGS step
    9    -192.5025168868      1.61e-05   Normal BFGS step
   10    -192.5025169020      1.12e-05   Normal BFGS step
   11    -192.5025169030      5.29e-06   Normal BFGS step
   12    -192.5025169031      1.23e-06   Normal BFGS step
   13    -192.5025169031      2.51e-07  Convergence criterion met
 ---------------------------------------
 SCF time:   CPU 892.32s  wall 25.00s 

************** Final PCM Free Energy Summary **************
 G_electrostatic  =      -0.09362166 hartree =     -58.74847546 kcal/mol
 G_cavitation     =       0.00000000 hartree =       0.00000000 kcal/mol
 G_dispersion     =       0.00000000 hartree =       0.00000000 kcal/mol
 G_repulsion      =       0.00000000 hartree =       0.00000000 kcal/mol
 --------------------------------------------------
 Non-electrostatic Free Energy =       0.00000000 hartree =       0.00000000 kcal/mol
 Total                         =      -0.09362166 hartree =     -58.74847546 kcal/mol
 --------------------------------------------------
 SCF Energy (H0 + V/2)                       =    -192.50251690 
 Solute Internal Energy (H0)                 =    -192.40889525 
 Total Free Energy (H0 + V/2 + non-elec)     =    -192.50251690 hartree
                                             = -120797.15254806 kcal/mol
***********************************************************

 SCF   energy in the final basis set =     -192.5025169031
 Total energy in the final basis set =     -192.5025169031
 
 --------------------------------------------------------------
 
                    Orbital Energies (a.u.)
 --------------------------------------------------------------
 
 Alpha MOs
 -- Occupied --
-19.1521 -10.2712 -10.2555 -10.1653  -1.0747  -0.8617  -0.7536  -0.6083
 -0.5313  -0.5155  -0.4841  -0.4160  -0.3750  -0.3442  -0.2994  -0.2555
 -- Virtual --
  0.0863   0.1101   0.1190   0.1310   0.1382   0.1531   0.1641   0.1730
  0.1914   0.2006   0.2143   0.2184   0.2339   0.2488   0.2613   0.2838
  0.2974   0.3009   0.3095   0.3259   0.3298   0.3407   0.3456   0.3549
  0.3680   0.3761   0.3772   0.3834   0.4056   0.4076   0.4136   0.4223
  0.4252   0.4358   0.4484   0.4555   0.4676   0.4729   0.4886   0.5032
  0.5178   0.5202   0.5368   0.5523   0.5794   0.5978   0.6017   0.6066
  0.6253   0.6329   0.6586   0.6732   0.6935   0.7045   0.7075   0.7256
  0.7378   0.7523   0.7868   0.8108   0.8189   0.8408   0.8571   0.8632
  0.8844   0.9186   0.9241   0.9391   0.9733   0.9848   1.0170   1.0278
  1.0964   1.1097   1.1354   1.1692   1.1998   1.2230   1.2275   1.2403
  1.2804   1.2939   1.3190   1.3320   1.3401   1.3706   1.3882   1.3940
  1.4265   1.4387   1.4481   1.4825   1.5719   1.5876   1.6041   1.6554
  1.6666   1.6941   1.7112   1.7292   1.7854   1.8314   1.8796   1.8860
  1.9739   1.9789   2.0138   2.0290   2.0866   2.1156   2.1604   2.1967
  2.2468   2.3814   2.4054   2.4071   2.5144   2.5278   2.6581   2.7454
  2.8191   2.8467   2.8772   2.8982   2.9163   2.9405   2.9609   2.9798
  2.9967   3.0311   3.0438   3.0774   3.1324   3.1510   3.1714   3.1852
  3.2063   3.2218   3.2595   3.2856   3.3222   3.3663   3.3826   3.3923
  3.4361   3.4930   3.5038   3.5204   3.5438   3.5573   3.5804   3.6004
  3.6468   3.6675   3.7126   3.7677   3.7926   3.8022   3.8526   3.8716
  3.9007   3.9320   3.9673   3.9878   4.0670   4.0970   4.1228   4.1717
  4.2273   4.2419   4.2562   4.3054   4.3531   4.4255   4.4397   4.5052
  4.5891   4.6110   4.6599   4.7114   4.7384   4.7761   4.7987   4.8312
  4.8598   4.8997   4.9201   4.9756   5.0366   5.1288   5.1455   5.1595
  5.1903   5.2756   5.3203   5.3631   5.4186   5.4681   5.5001   5.5777
  5.6588   5.6765   5.7275   5.7576   5.7812   5.8065   5.9650   6.1683
  6.2035   6.3883   6.5414   6.8841   7.0896   7.1057   7.5042   7.6203
 22.6427  23.4329  23.8064  44.3580
 --------------------------------------------------------------
 
          Ground-State Mulliken Net Atomic Charges

     Atom                 Charge (a.u.)
  ----------------------------------------
      1 C                    -0.745299
      2 C                     0.038489
      3 O                    -0.434158
      4 C                    -0.104527
      5 H                     0.024013
      6 H                     0.025180
      7 H                     0.037291
      8 H                     0.074187
      9 H                     0.084823
  ----------------------------------------
  Sum of atomic charges =    -1.000000

  Building new vdw surfaces
         Merz-Kollman RESP Net Atomic Charges

     Atom                 Charge (a.u.)
  ----------------------------------------
      1 C                    -1.118274
      2 C                     0.256181
      3 O                    -0.444290
      4 C                    -0.151450
      5 H                     0.134865
      6 H                     0.134865
      7 H                     0.062701
      8 H                     0.062701
      9 H                     0.062701
  ----------------------------------------
  Sum of atomic charges =    -1.000000

  Related Dipole Moment =    11.8520 (X  8.9211 Y -3.5934 Z -6.9262)

 -----------------------------------------------------------------
                    Cartesian Multipole Moments
 -----------------------------------------------------------------
    Charge (ESU x 10^10)
                -4.8032
    Dipole Moment (Debye)
         X       9.0708      Y      -3.7479      Z      -6.9535
       Tot      12.0282
    Quadrupole Moments (Debye-Ang)
        XX     -46.5621     XY       8.1129     YY     -33.9794
        XZ      16.8634     YZ      -7.0905     ZZ     -43.9514
    Octopole Moments (Debye-Ang^2)
       XXX      69.9661    XXY     -24.2356    XYY      22.3707
       YYY     -21.1992    XXZ     -73.6030    XYZ      17.8989
       YYZ     -45.5784    XZZ      49.3800    YZZ     -20.0108
       ZZZ    -143.9157
    Hexadecapole Moments (Debye-Ang^3)
      XXXX    -379.6963   XXXY     112.4588   XXYY     -94.2149
      XYYY      82.2713   YYYY    -137.4562   XXXZ     194.8248
      XXYZ     -63.3226   XYYZ      60.2546   YYYZ     -79.0760
      XXZZ    -210.1085   XYZZ      60.8955   YYZZ    -116.1196
      XZZZ     204.4916   YZZZ     -97.5033   ZZZZ    -549.3859
 -----------------------------------------------------------------
 Calculating analytic gradient of the SCF energy
 Gradient of SCF Energy
            1           2           3           4           5           6
    1   0.0878493  -0.0645232   0.0104782   0.0299129  -0.0280103  -0.0145030
    2  -0.0331127   0.0602441   0.0073497  -0.0069311   0.0017205  -0.0320654
    3  -0.0261314   0.0950521  -0.0160744  -0.0016009  -0.0138653  -0.0366170
            7           8           9
    1  -0.0003372  -0.0031508  -0.0177159
    2   0.0108089   0.0150360  -0.0230498
    3   0.0208221  -0.0202635  -0.0013218
 Max gradient component =       9.505E-02
 RMS gradient           =       3.512E-02
 Computing fast CPCM-SWIG gradient
 Updating gradient with PCM contributions...
 -- total gradient after adding PCM contribution --
---------------------------------------------------
  Atom         X              Y              Z     
---------------------------------------------------
   1       0.037655      -0.040792      -0.013753
   2      -0.098048       0.053271       0.063282
   3       0.025661       0.002778      -0.016940
   4       0.001443      -0.003828      -0.003400
   5      -0.004617      -0.001731       0.002040
   6       0.035491      -0.009486      -0.030670
   7       0.001089      -0.000767      -0.000098
   8       0.001985      -0.000674      -0.000253
   9      -0.000659       0.001229      -0.000208
---------------------------------------------------
 Number of fixed atoms: 0
 Gradient time:  CPU 406.86 s  wall 12.01 s

 *****************************************************
             Starting BFGS Algorithm
 *****************************************************
            LIBOPT3 RUN PARAMETERS

  Geometry Optimization Coordinates :
	Internal Coordinates

  Step Length Selection Method :
	Eigenvector Following Algorithm

  Convergence Criteria :
	Max Gradient Component    	3.00000000e-04
	Max Displacement Component	1.20000000e-03
	Absolute Energy Difference	1.00000000e-06

  Initial Hessian :
	Read/Provided Hessian

  Type of Verification :
	Verify with final updated Hessian
 *****************************************************

	OPTIMIZATION CYCLE:	1

 Scaling Magnitude of Eigenvalues
 	Minimum: -25.00000000	 Maximum: 25.00000000
 21 Hessian Eigenvalues to form next step
  -0.01100420   0.00188555   0.00949226   0.01819456   0.03065408
   0.04275244   0.05604532   0.08539498   0.08910528   0.10236253
   0.12600828   0.15879780   0.17590584   0.24473264   0.28227057
   0.31174274   0.31461787   0.33779553   0.40324063   0.43362805
   0.55654593

 Minimum Search taking a RFO step
 Searching for Lambda that minimizes along all modes
	Value of Lambda   -0.05396970
	Norm  of Stepsize  0.84362711
	RMS   of Stepsize  0.14468086

	Performing Iterative Coordinate Back-Transformation

	  Starting from Previous Position

	  iter:	0	rms: 1.0537376814e-01	maxdev: 2.3353540418e-01
	  iter:	1	rms: 5.2341923614e-03	maxdev: 1.2380822523e-02
	  iter:	2	rms: 3.2573402749e-05	maxdev: 1.1271625966e-04
	  iter:	3	rms: 6.4507087905e-08	maxdev: 1.7067631222e-07	 Success!

	Finished Iterative Coordinate Back-Transformation
 ----------------------------------------------------------------
             Standard Nuclear Orientation (Angstroms)
    I     Atom           X                Y                Z
 ----------------------------------------------------------------
    1      C      -1.6837095446     1.0102269284     2.1514831986
    2      C      -0.5893988975     0.2638995903     1.6748623531
    3      O      -0.2339990914    -0.1772654381     0.4182171704
    4      C       1.0952983808    -0.6209599219     0.3146568652
    5      H       0.3655543735     0.0322354535     2.2373022449
    6      H      -0.9421797965     1.3195721830     2.9765813815
    7      H       1.1825091110    -1.1500680874    -0.6360966471
    8      H       1.3686560906    -1.3131164482     1.1193930722
    9      H       1.8002258327     0.2182607058     0.3289881024
 ----------------------------------------------------------------
 Nuclear Repulsion Energy =         110.67442256 hartrees
 There are       16 alpha and       16 beta electrons
 Discretize the solute cavity surface with Lebedev spheres
	Using 194 Lebedev grid points for each H atom
	Using 194 Lebedev grid points for other atoms
	Atomic van der Waals radii (UFF set) will be scaled by 1.10
 Using smooth SwiG surface discretization
 Remove points where switching function is < 1.0e-08
 Keep 841 surface tesserae and discard 905 interior tesserae
 Molecular Surface Area = 121.841 Angst**2


                       Distance Matrix (Angstroms)
             C (  1)   C (  2)   O (  3)   C (  4)   H (  5)   H (  6)
   C (  2)  1.407724
   O (  3)  2.552648  1.378439
   C (  4)  3.709122  2.339090  1.405212
   H (  5)  2.272293  1.132229  1.926766  2.157720
   H (  6)  1.151672  1.712709  3.047502  3.873348  1.978368
   H (  7)  4.544523  3.237205  2.016040  1.091555  3.212737  4.864655
   H (  8)  3.972414  2.574783  2.085739  1.096086  2.016409  3.964866
   H (  9)  4.010798  2.742949  2.074241  1.096093  2.394692  3.967799
             H (  7)   H (  8)
   H (  8)  1.772845
   H (  9)  1.784737  1.776544
 
 Applying Cartesian multipole field
    Component          Value
    ---------          -----
     (2,0,0)        1.00000E-11
     (0,2,0)        2.00000E-11
     (0,0,2)       -3.00000E-11
 Nucleus-field energy     =-4.4473176087e-09 hartrees
 Requested basis set is def2-TZVPPD
 There are 88 shells and 236 basis functions
 A cutoff of  1.0D-16 yielded   3853 shell pairs
 There are     28027 function pairs (     35440 Cartesian)
 Smallest overlap matrix eigenvalue = 1.16E-05
 Guess MOs from SCF MO coefficient file

 -----------------------------------------------------------------------
  General SCF calculation program by
  Eric Jon Sundstrom, Paul Horn, Yuezhi Mao, Dmitri Zuev, Alec White,
  David Stuck, Shaama M.S., Shane Yost, Joonho Lee, David Small,
  Daniel Levine, Susi Lehtola, Hugh Burton, Evgeny Epifanovsky,
  Bang C. Huynh
 -----------------------------------------------------------------------
 Exchange:     0.1670 Hartree-Fock + 1.0000 wB97X-V + LR-HF
 Correlation:  1.0000 wB97X-V
 Using SG-3 standard quadrature grid
 Nonlocal Correlation:  VV10 with C = 0.0100 and b = 6.00 and scale = 1.00000
 Grid used for NLC:  SG-1 standard quadrature
 A restricted SCF calculation will be
 performed using Roothaan-Hall, GDM
 SCF converges when RMS gradient is below 1.0e-06
 ---------------------------------------
  Cycle       Energy         DIIS error
 ---------------------------------------
    1    -192.3827442895      2.68e-03  Roothaan Step
 ---------------------------------------
  Cycle       Energy        RMS Gradient
 ---------------------------------------
    1    -192.5147220992      1.88e-02   Normal BFGS step
    2    -192.5221767289      1.11e-02   Normal BFGS step
    3    -192.5247575059      5.89e-03   Normal BFGS step
    4    -192.5249009426      1.34e-03   Normal BFGS step
    5    -192.5249682443      8.98e-04   Normal BFGS step
    6    -192.5249729627      4.52e-04   Normal BFGS step
    7    -192.5249745510      1.24e-04   Normal BFGS step
    8    -192.5249747583      3.22e-05   Normal BFGS step
    9    -192.5249747929      1.22e-05   Normal BFGS step
   10    -192.5249747970      4.24e-06   Normal BFGS step
   11    -192.5249747975      1.55e-06   Normal BFGS step
   12    -192.5249747976      6.15e-07  Convergence criterion met
 ---------------------------------------
 SCF time:   CPU 846.82s  wall 23.00s 

************** Final PCM Free Energy Summary **************
 G_electrostatic  =      -0.09975180 hartree =     -62.59519743 kcal/mol
 G_cavitation     =       0.00000000 hartree =       0.00000000 kcal/mol
 G_dispersion     =       0.00000000 hartree =       0.00000000 kcal/mol
 G_repulsion      =       0.00000000 hartree =       0.00000000 kcal/mol
 --------------------------------------------------
 Non-electrostatic Free Energy =       0.00000000 hartree =       0.00000000 kcal/mol
 Total                         =      -0.09975180 hartree =     -62.59519743 kcal/mol
 --------------------------------------------------
 SCF Energy (H0 + V/2)                       =    -192.52497480 
 Solute Internal Energy (H0)                 =    -192.42522300 
 Total Free Energy (H0 + V/2 + non-elec)     =    -192.52497480 hartree
                                             = -120811.24508953 kcal/mol
***********************************************************

 SCF   energy in the final basis set =     -192.5249747976
 Total energy in the final basis set =     -192.5249747976
 
 --------------------------------------------------------------
 
                    Orbital Energies (a.u.)
 --------------------------------------------------------------
 
 Alpha MOs
 -- Occupied --
-19.1885 -10.2859 -10.2630 -10.1757  -1.1455  -0.8254  -0.7598  -0.6330
 -0.5618  -0.5434  -0.4807  -0.4051  -0.4011  -0.3819  -0.2722  -0.2393
 -- Virtual --
  0.0847   0.1094   0.1178   0.1301   0.1371   0.1439   0.1642   0.1733
  0.1924   0.2024   0.2158   0.2214   0.2339   0.2527   0.2674   0.2840
  0.2963   0.3002   0.3086   0.3239   0.3352   0.3400   0.3532   0.3637
  0.3706   0.3725   0.3799   0.3902   0.4028   0.4050   0.4175   0.4233
  0.4308   0.4412   0.4478   0.4638   0.4687   0.4752   0.4874   0.5012
  0.5126   0.5147   0.5304   0.5493   0.5854   0.5941   0.6029   0.6122
  0.6205   0.6401   0.6536   0.6661   0.6789   0.6987   0.7133   0.7157
  0.7357   0.7568   0.7812   0.8120   0.8212   0.8343   0.8515   0.8603
  0.8801   0.9141   0.9283   0.9340   0.9510   0.9589   1.0157   1.0336
  1.0865   1.0929   1.1193   1.1581   1.1751   1.2009   1.2208   1.2356
  1.2538   1.2774   1.3130   1.3315   1.3394   1.3569   1.3756   1.3990
  1.4323   1.4475   1.4597   1.4821   1.5581   1.5971   1.6020   1.6667
  1.6721   1.6891   1.7141   1.7376   1.7742   1.8354   1.8579   1.8676
  1.9541   1.9677   2.0031   2.0345   2.1222   2.1429   2.1847   2.2442
  2.3077   2.3846   2.4049   2.4866   2.5094   2.5860   2.6141   2.7505
  2.8000   2.8476   2.8802   2.8951   2.9225   2.9385   2.9694   3.0019
  3.0229   3.0363   3.0419   3.1002   3.1267   3.1689   3.1719   3.1815
  3.2273   3.2444   3.2697   3.3105   3.3469   3.3548   3.4000   3.4060
  3.4364   3.4899   3.4998   3.5045   3.5390   3.5453   3.5670   3.5879
  3.6343   3.6681   3.6919   3.7233   3.7939   3.7988   3.8408   3.8600
  3.8831   3.8903   3.9326   3.9879   4.0312   4.0908   4.0944   4.1518
  4.1797   4.1997   4.2308   4.2968   4.3276   4.3683   4.4068   4.4267
  4.4858   4.5171   4.5494   4.6702   4.6993   4.7267   4.7801   4.8063
  4.8385   4.8982   4.9460   4.9688   5.0146   5.0692   5.1155   5.1767
  5.2071   5.2318   5.3390   5.3627   5.3950   5.4502   5.4882   5.5712
  5.6232   5.6440   5.7036   5.7766   5.8028   5.8952   6.1417   6.1894
  6.2878   6.6169   6.6906   6.9383   7.1170   7.1317   7.5459   7.6085
 22.5685  23.2936  23.8462  44.4899
 --------------------------------------------------------------
 
          Ground-State Mulliken Net Atomic Charges

     Atom                 Charge (a.u.)
  ----------------------------------------
      1 C                    -0.674652
      2 C                    -0.067490
      3 O                    -0.396078
      4 C                    -0.135705
      5 H                     0.039059
      6 H                    -0.036024
      7 H                     0.036209
      8 H                     0.105985
      9 H                     0.128696
  ----------------------------------------
  Sum of atomic charges =    -1.000000

  Building new vdw surfaces
         Merz-Kollman RESP Net Atomic Charges

     Atom                 Charge (a.u.)
  ----------------------------------------
      1 C                    -1.182344
      2 C                     0.050565
      3 O                    -0.203546
      4 C                    -0.268652
      5 H                     0.142823
      6 H                     0.142823
      7 H                     0.106110
      8 H                     0.106110
      9 H                     0.106110
  ----------------------------------------
  Sum of atomic charges =    -1.000000

  Related Dipole Moment =    14.1374 (X 10.0563 Y -4.9153 Z -8.6357)

 -----------------------------------------------------------------
                    Cartesian Multipole Moments
 -----------------------------------------------------------------
    Charge (ESU x 10^10)
                -4.8032
    Dipole Moment (Debye)
         X      10.2923      Y      -4.9737      Z      -8.6476
       Tot      14.3335
    Quadrupole Moments (Debye-Ang)
        XX     -47.9033     XY       9.0959     YY     -35.5730
        XZ      18.5434     YZ      -8.7947     ZZ     -47.9918
    Octopole Moments (Debye-Ang^2)
       XXX      78.2786    XXY     -27.7385    XYY      25.8744
       YYY     -27.2826    XXZ     -76.4887    XYZ      18.7847
       YYZ     -49.5325    XZZ      52.0910    YZZ     -23.6674
       ZZZ    -155.8165
    Hexadecapole Moments (Debye-Ang^3)
      XXXX    -392.9753   XXXY     120.2124   XXYY    -100.2888
      XYYY      88.9672   YYYY    -150.2632   XXXZ     200.7653
      XXYZ     -66.0011   XYYZ      63.6549   YYYZ     -86.1230
      XXZZ    -211.5087   XYZZ      61.3594   YYZZ    -122.7196
      XZZZ     205.4360   YZZZ    -103.8344   ZZZZ    -570.2543
 -----------------------------------------------------------------
 Calculating analytic gradient of the SCF energy
 Gradient of SCF Energy
            1           2           3           4           5           6
    1  -0.0132688   0.0310428   0.0040258   0.0208795  -0.0026876  -0.0232162
    2   0.0125163  -0.0088344   0.0284094   0.0034275  -0.0114042  -0.0236586
    3   0.0403079  -0.0235676   0.0306968   0.0053587  -0.0221917  -0.0271904
            7           8           9
    1  -0.0004398  -0.0012104  -0.0151253
    2   0.0092761   0.0171800  -0.0269121
    3   0.0197181  -0.0212285  -0.0019033
 Max gradient component =       4.031E-02
 RMS gradient           =       1.967E-02
 Computing fast CPCM-SWIG gradient
 Updating gradient with PCM contributions...
 -- total gradient after adding PCM contribution --
---------------------------------------------------
  Atom         X              Y              Z     
---------------------------------------------------
   1      -0.077218       0.026262       0.014634
   2      -0.002076      -0.031316      -0.028503
   3       0.023765       0.013957       0.027388
   4      -0.000607       0.004343       0.005384
   5       0.019073      -0.012194      -0.009316
   6       0.037533       0.000670      -0.009282
   7      -0.001226      -0.000868       0.000448
   8       0.001043       0.000518      -0.000569
   9      -0.000285      -0.001371      -0.000185
---------------------------------------------------
 Number of fixed atoms: 0
 Gradient time:  CPU 408.29 s  wall 12.00 s

     Step 1	:
        Energy is -192.5249747976
                            Maximum         Tolerance       Converged?
         Gradient           5.40051202e-02	3.00000000e-04	false
         Displacement       4.74640503e-01	1.20000000e-03	false
         Energy change      2.24578945e-02	1.00000000e-06	false


	OPTIMIZATION CYCLE:	2

 Scaling Magnitude of Eigenvalues
 	Minimum: -25.00000000	 Maximum: 25.00000000
 21 Hessian Eigenvalues to form next step
  -0.01281475   0.00212852   0.01560307   0.02059464   0.03589860
   0.03948828   0.05116641   0.08401555   0.08939848   0.12195939
   0.15055821   0.15900675   0.17697807   0.24731641   0.30395661
   0.31407929   0.33777109   0.37763787   0.40501655   0.42782417
   0.55660790

 Minimum Search taking a RFO step
 Searching for Lambda that minimizes along all modes
	Value of Lambda   -0.02914551
	Norm  of Stepsize  0.65503108
	RMS   of Stepsize  0.11233690

	Performing Iterative Coordinate Back-Transformation

	  Starting from Previous Position

	  iter:	0	rms: 1.0942838976e-01	maxdev: 3.4444878533e-01
	  iter:	1	rms: 1.0821488030e-02	maxdev: 2.8212711404e-02
	  iter:	2	rms: 1.7549485638e-04	maxdev: 5.3943496883e-04
	  iter:	3	rms: 1.7901589727e-06	maxdev: 5.6956621984e-06
	  iter:	4	rms: 2.3514365684e-08	maxdev: 9.5410899699e-08	 Success!

	Finished Iterative Coordinate Back-Transformation
 ----------------------------------------------------------------
             Standard Nuclear Orientation (Angstroms)
    I     Atom           X                Y                Z
 ----------------------------------------------------------------
    1      C      -1.6204462578     0.9692601250     2.1758642066
    2      C      -0.5738699327     0.2611480385     1.7133631734
    3      O      -0.2117425014    -0.1803776882     0.4000361430
    4      C       1.1132160842    -0.6474314076     0.2704237919
    5      H       0.4000542354     0.1072517656     2.3173862190
    6      H      -1.1395855459     1.4261918597     3.0376918314
    7      H       1.1878677925    -1.1505568244    -0.6937709468
    8      H       1.3650882843    -1.3749910225     1.0527584725
    9      H       1.8423743001     0.1722901195     0.3116348502
 ----------------------------------------------------------------
 Nuclear Repulsion Energy =         109.90621887 hartrees
 There are       16 alpha and       16 beta electrons
 Discretize the solute cavity surface with Lebedev spheres
	Using 194 Lebedev grid points for each H atom
	Using 194 Lebedev grid points for other atoms
	Atomic van der Waals radii (UFF set) will be scaled by 1.10
 Using smooth SwiG surface discretization
 Remove points where switching function is < 1.0e-08
 Keep 856 surface tesserae and discard 890 interior tesserae
 Molecular Surface Area = 122.560 Angst**2


                       Distance Matrix (Angstroms)
             C (  1)   C (  2)   O (  3)   C (  4)   H (  5)   H (  6)
   C (  2)  1.345605
   O (  3)  2.541590  1.432100
   C (  4)  3.703688  2.398718  1.410834
   H (  5)  2.201252  1.156311  2.033041  2.295256
   H (  6)  1.087548  1.852352  3.224777  4.127081  2.151496
   H (  7)  4.540381  3.300140  2.023999  1.090128  3.357052  5.097106
   H (  8)  3.958573  2.621623  2.083157  1.097648  2.174309  4.249703
   H (  9)  4.012685  2.794812  2.086045  1.097868  2.471347  4.230336
             H (  7)   H (  8)
   H (  8)  1.769786
   H (  9)  1.785817  1.780771
 
 Applying Cartesian multipole field
    Component          Value
    ---------          -----
     (2,0,0)        1.00000E-11
     (0,2,0)        2.00000E-11
     (0,0,2)       -3.00000E-11
 Nucleus-field energy     =-4.6493928048e-09 hartrees
 Requested basis set is def2-TZVPPD
 There are 88 shells and 236 basis functions
 A cutoff of  1.0D-16 yielded   3843 shell pairs
 There are     27955 function pairs (     35356 Cartesian)
 Smallest overlap matrix eigenvalue = 8.78E-06
 Guess MOs from SCF MO coefficient file

 -----------------------------------------------------------------------
  General SCF calculation program by
  Eric Jon Sundstrom, Paul Horn, Yuezhi Mao, Dmitri Zuev, Alec White,
  David Stuck, Shaama M.S., Shane Yost, Joonho Lee, David Small,
  Daniel Levine, Susi Lehtola, Hugh Burton, Evgeny Epifanovsky,
  Bang C. Huynh
 -----------------------------------------------------------------------
 Exchange:     0.1670 Hartree-Fock + 1.0000 wB97X-V + LR-HF
 Correlation:  1.0000 wB97X-V
 Using SG-3 standard quadrature grid
 Nonlocal Correlation:  VV10 with C = 0.0100 and b = 6.00 and scale = 1.00000
 Grid used for NLC:  SG-1 standard quadrature
 A restricted SCF calculation will be
 performed using Roothaan-Hall, GDM
 SCF converges when RMS gradient is below 1.0e-06
 ---------------------------------------
  Cycle       Energy         DIIS error
 ---------------------------------------
    1    -192.4301990755      1.40e-03  Roothaan Step
 ---------------------------------------
  Cycle       Energy        RMS Gradient
 ---------------------------------------
    1    -192.5360909911      1.38e-02   Normal BFGS step
    2    -192.5400459108      7.00e-03   Normal BFGS step
    3    -192.5413652635      1.57e-03   Normal BFGS step
    4    -192.5414800674      1.11e-03   Normal BFGS step
    5    -192.5415014522      4.50e-04   Normal BFGS step
    6    -192.5415060558      2.35e-04   Normal BFGS step
    7    -192.5415066464      5.29e-05   Normal BFGS step
    8    -192.5415067920      2.27e-05   Normal BFGS step
    9    -192.5415068035      1.04e-05   Normal BFGS step
   10    -192.5415068046      3.49e-06   Normal BFGS step
   11    -192.5415068048      1.23e-06   Normal BFGS step
   12    -192.5415068048      4.32e-07  Convergence criterion met
 ---------------------------------------
 SCF time:   CPU 841.49s  wall 23.00s 

************** Final PCM Free Energy Summary **************
 G_electrostatic  =      -0.09927677 hartree =     -62.29711164 kcal/mol
 G_cavitation     =       0.00000000 hartree =       0.00000000 kcal/mol
 G_dispersion     =       0.00000000 hartree =       0.00000000 kcal/mol
 G_repulsion      =       0.00000000 hartree =       0.00000000 kcal/mol
 --------------------------------------------------
 Non-electrostatic Free Energy =       0.00000000 hartree =       0.00000000 kcal/mol
 Total                         =      -0.09927677 hartree =     -62.29711164 kcal/mol
 --------------------------------------------------
 SCF Energy (H0 + V/2)                       =    -192.54150680 
 Solute Internal Energy (H0)                 =    -192.44223004 
 Total Free Energy (H0 + V/2 + non-elec)     =    -192.54150680 hartree
                                             = -120821.61908063 kcal/mol
***********************************************************

 SCF   energy in the final basis set =     -192.5415068048
 Total energy in the final basis set =     -192.5415068048
 
 --------------------------------------------------------------
 
                    Orbital Energies (a.u.)
 --------------------------------------------------------------
 
 Alpha MOs
 -- Occupied --
-19.1854 -10.2838 -10.2587 -10.1620  -1.1254  -0.8229  -0.7601  -0.6220
 -0.5496  -0.5362  -0.4845  -0.4262  -0.3963  -0.3914  -0.2676  -0.2387
 -- Virtual --
  0.0860   0.1100   0.1180   0.1303   0.1357   0.1457   0.1632   0.1752
  0.1940   0.1985   0.2177   0.2181   0.2377   0.2520   0.2682   0.2860
  0.2935   0.3008   0.3098   0.3256   0.3358   0.3415   0.3536   0.3600
  0.3687   0.3711   0.3785   0.3893   0.4027   0.4058   0.4111   0.4158
  0.4288   0.4357   0.4427   0.4608   0.4668   0.4766   0.4819   0.5027
  0.5139   0.5272   0.5360   0.5503   0.5786   0.5862   0.5945   0.6069
  0.6247   0.6398   0.6527   0.6653   0.6835   0.7065   0.7181   0.7222
  0.7346   0.7612   0.7766   0.8122   0.8237   0.8279   0.8637   0.8786
  0.8916   0.9176   0.9194   0.9341   0.9536   0.9578   1.0114   1.0346
  1.0862   1.0983   1.1311   1.1322   1.1771   1.2048   1.2139   1.2320
  1.2522   1.2908   1.3152   1.3393   1.3436   1.3509   1.3765   1.4101
  1.4364   1.4515   1.4636   1.4712   1.5441   1.5749   1.5910   1.6573
  1.6806   1.6913   1.7156   1.7247   1.7728   1.8338   1.8407   1.8870
  1.9555   1.9681   1.9985   2.0340   2.1147   2.1222   2.1684   2.2699
  2.2960   2.3758   2.3910   2.4744   2.4995   2.5654   2.6317   2.7925
  2.8292   2.8363   2.8609   2.8828   2.8918   2.9370   2.9723   2.9797
  3.0077   3.0388   3.0505   3.0799   3.1041   3.1504   3.1741   3.1867
  3.2253   3.2533   3.2846   3.3087   3.3388   3.3703   3.3994   3.4051
  3.4155   3.4612   3.4881   3.5235   3.5379   3.5558   3.5875   3.5991
  3.6155   3.6664   3.6733   3.7200   3.7473   3.8099   3.8214   3.8635
  3.9045   3.9603   3.9699   3.9943   4.0300   4.0714   4.0965   4.1585
  4.1680   4.2302   4.2485   4.2567   4.3061   4.3391   4.4165   4.4304
  4.4993   4.5629   4.5717   4.6222   4.6574   4.7221   4.7577   4.8016
  4.8312   4.9055   4.9351   4.9663   5.0399   5.1160   5.1214   5.1730
  5.2210   5.2542   5.3312   5.3568   5.3876   5.4417   5.4671   5.5768
  5.6195   5.6801   5.7254   5.7671   5.7934   5.8348   6.0547   6.1591
  6.2430   6.5562   6.6376   6.9186   7.1042   7.1086   7.5370   7.6216
 22.7154  23.2617  23.8290  44.4519
 --------------------------------------------------------------
 
          Ground-State Mulliken Net Atomic Charges

     Atom                 Charge (a.u.)
  ----------------------------------------
      1 C                    -0.642731
      2 C                    -0.077717
      3 O                    -0.384360
      4 C                    -0.130472
      5 H                     0.049328
      6 H                    -0.077378
      7 H                     0.038685
      8 H                     0.110294
      9 H                     0.114352
  ----------------------------------------
  Sum of atomic charges =    -1.000000

  Building new vdw surfaces
         Merz-Kollman RESP Net Atomic Charges

     Atom                 Charge (a.u.)
  ----------------------------------------
      1 C                    -1.201444
      2 C                    -0.037445
      3 O                    -0.224207
      4 C                    -0.188078
      5 H                     0.204394
      6 H                     0.204394
      7 H                     0.080795
      8 H                     0.080795
      9 H                     0.080795
  ----------------------------------------
  Sum of atomic charges =    -1.000000

  Related Dipole Moment =    13.2600 (X  9.6565 Y -4.2690 Z -8.0221)

 -----------------------------------------------------------------
                    Cartesian Multipole Moments
 -----------------------------------------------------------------
    Charge (ESU x 10^10)
                -4.8032
    Dipole Moment (Debye)
         X       9.9252      Y      -4.4072      Z      -7.9730
       Tot      13.4722
    Quadrupole Moments (Debye-Ang)
        XX     -47.6492     XY       8.2009     YY     -34.3945
        XZ      16.8022     YZ      -7.0109     ZZ     -45.0411
    Octopole Moments (Debye-Ang^2)
       XXX      75.7471    XXY     -25.3271    XYY      23.0132
       YYY     -22.7030    XXZ     -73.6246    XYZ      15.9316
       YYZ     -45.7804    XZZ      45.1835    YZZ     -17.4476
       ZZZ    -143.9781
    Hexadecapole Moments (Debye-Ang^3)
      XXXX    -390.3663   XXXY     115.7857   XXYY     -95.6682
      XYYY      83.2674   YYYY    -142.6284   XXXZ     194.4013
      XXYZ     -59.9483   XYYZ      57.1819   YYYZ     -77.6502
      XXZZ    -200.9140   XYZZ      51.6403   YYZZ    -112.3837
      XZZZ     182.6514   YZZZ     -84.0138   ZZZZ    -533.0856
 -----------------------------------------------------------------
 Calculating analytic gradient of the SCF energy
 Gradient of SCF Energy
            1           2           3           4           5           6
    1   0.0533898  -0.0177554   0.0073026   0.0259037  -0.0007656  -0.0504268
    2   0.0001690   0.0193310   0.0177679  -0.0004453  -0.0096036  -0.0276956
    3   0.0579492   0.0100400   0.0035074  -0.0011868  -0.0049068  -0.0636397
            7           8           9
    1   0.0001916  -0.0023087  -0.0155312
    2   0.0092420   0.0163770  -0.0251423
    3   0.0218455  -0.0207630  -0.0028457
 Max gradient component =       6.364E-02
 RMS gradient           =       2.559E-02
 Computing fast CPCM-SWIG gradient
 Updating gradient with PCM contributions...
 -- total gradient after adding PCM contribution --
---------------------------------------------------
  Atom         X              Y              Z     
---------------------------------------------------
   1      -0.011957       0.008207       0.033133
   2      -0.052127      -0.014075      -0.015994
   3       0.027319       0.005343      -0.002806
   4       0.003626       0.002648      -0.004299
   5       0.022968      -0.005620       0.009179
   6       0.009899       0.005696      -0.020614
   7      -0.000187      -0.001059       0.001612
   8      -0.000204      -0.000428       0.000004
   9       0.000663      -0.000711      -0.000215
---------------------------------------------------
 Number of fixed atoms: 0
 Gradient time:  CPU 406.47 s  wall 11.97 s

     Step 2	:
        Energy is -192.5415068048
                            Maximum         Tolerance       Converged?
         Gradient           2.48875808e-02	3.00000000e-04	false
         Displacement       3.30915229e-01	1.20000000e-03	false
         Energy change      1.65320072e-02	1.00000000e-06	false


	OPTIMIZATION CYCLE:	3

 Scaling Magnitude of Eigenvalues
 	Minimum: -25.00000000	 Maximum: 25.00000000
 21 Hessian Eigenvalues to form next step
  -0.03466554   0.00199861   0.01577592   0.01941439   0.02165390
   0.03915533   0.06193982   0.08463737   0.08924870   0.12290831
   0.15585078   0.17063542   0.18722406   0.24618008   0.25960076
   0.30531468   0.31770608   0.33887364   0.40306964   0.43227524
   0.56844719

 Minimum Search taking a RFO step
 Searching for Lambda that minimizes along all modes
	Value of Lambda   -0.04869007
	Norm  of Stepsize  0.87464278
	RMS   of Stepsize  0.15000000

	Performing Iterative Coordinate Back-Transformation

	  Starting from Previous Position

	  iter:	0	rms: 1.8231372228e-01	maxdev: 6.8364877009e-01
	  iter:	1	rms: 3.2249669560e-02	maxdev: 1.0635280935e-01
	  iter:	2	rms: 1.8148189981e-03	maxdev: 4.7152671759e-03
	  iter:	3	rms: 1.5816530213e-04	maxdev: 4.5283908323e-04
	  iter:	4	rms: 6.0493338508e-06	maxdev: 1.4271000836e-05
	  iter:	5	rms: 8.7008664627e-07	maxdev: 2.4010666593e-06	 Success!

	Finished Iterative Coordinate Back-Transformation
 ----------------------------------------------------------------
             Standard Nuclear Orientation (Angstroms)
    I     Atom           X                Y                Z
 ----------------------------------------------------------------
    1      C      -1.5070836904     1.0242713706     2.0818463442
    2      C      -0.5667672836     0.3052899873     1.7072048206
    3      O      -0.1959366390    -0.2581992508     0.3995106109
    4      C       1.1369310254    -0.6672157915     0.2469539103
    5      H       0.0499035315     0.1222357856     2.3699417594
    6      H      -1.0425945144     1.3747477646     3.1983480778
    7      H       1.2313951994    -1.2015522489    -0.7031105807
    8      H       1.4533985382    -1.3201713834     1.0619701670
    9      H       1.8037102917     0.2033787319     0.2227226316
 ----------------------------------------------------------------
 Nuclear Repulsion Energy =         111.28291350 hartrees
 There are       16 alpha and       16 beta electrons
 Discretize the solute cavity surface with Lebedev spheres
	Using 194 Lebedev grid points for each H atom
	Using 194 Lebedev grid points for other atoms
	Atomic van der Waals radii (UFF set) will be scaled by 1.10
 Using smooth SwiG surface discretization
 Remove points where switching function is < 1.0e-08
 Keep 859 surface tesserae and discard 887 interior tesserae
 Molecular Surface Area = 122.336 Angst**2


                       Distance Matrix (Angstroms)
             C (  1)   C (  2)   O (  3)   C (  4)   H (  5)   H (  6)
   C (  2)  1.241566
   O (  3)  2.488793  1.471428
   C (  4)  3.635763  2.445545  1.402535
   H (  5)  1.822327  0.923586  2.021823  2.512357
   H (  6)  1.259031  1.895695  3.349155  4.198890  1.857039
   H (  7)  4.495502  3.363567  2.035427  1.094103  3.548519  5.199012
   H (  8)  3.911651  2.671988  2.070494  1.091217  2.400235  4.249315
   H (  9)  3.884786  2.798792  2.059829  1.096867  2.773621  4.281110
             H (  7)   H (  8)
   H (  8)  1.782937
   H (  9)  1.777229  1.774334
 
 Applying Cartesian multipole field
    Component          Value
    ---------          -----
     (2,0,0)        1.00000E-11
     (0,2,0)        2.00000E-11
     (0,0,2)       -3.00000E-11
 Nucleus-field energy     =-4.4990133022e-09 hartrees
 Requested basis set is def2-TZVPPD
 There are 88 shells and 236 basis functions
 A cutoff of  1.0D-16 yielded   3842 shell pairs
 There are     27948 function pairs (     35346 Cartesian)
 Smallest overlap matrix eigenvalue = 4.70E-06
 Guess MOs from SCF MO coefficient file

 -----------------------------------------------------------------------
  General SCF calculation program by
  Eric Jon Sundstrom, Paul Horn, Yuezhi Mao, Dmitri Zuev, Alec White,
  David Stuck, Shaama M.S., Shane Yost, Joonho Lee, David Small,
  Daniel Levine, Susi Lehtola, Hugh Burton, Evgeny Epifanovsky,
  Bang C. Huynh
 -----------------------------------------------------------------------
 Exchange:     0.1670 Hartree-Fock + 1.0000 wB97X-V + LR-HF
 Correlation:  1.0000 wB97X-V
 Using SG-3 standard quadrature grid
 Nonlocal Correlation:  VV10 with C = 0.0100 and b = 6.00 and scale = 1.00000
 Grid used for NLC:  SG-1 standard quadrature
 A restricted SCF calculation will be
 performed using Roothaan-Hall, GDM
 SCF converges when RMS gradient is below 1.0e-06
 ---------------------------------------
  Cycle       Energy         DIIS error
 ---------------------------------------
    1    -192.3521654819      2.64e-03  Roothaan Step
 ---------------------------------------
  Cycle       Energy        RMS Gradient
 ---------------------------------------
    1    -192.4830765364      2.63e-02   Normal BFGS step
    2    -192.4898848137      1.37e-02   Normal BFGS step
    3    -192.4945449728      4.70e-03   Normal BFGS step
    4    -192.4947662351      2.08e-03   Normal BFGS step
    5    -192.4948005139      4.70e-04   Normal BFGS step
    6    -192.4948031600      2.51e-04   Normal BFGS step
    7    -192.4948050556      6.23e-05   Normal BFGS step
    8    -192.4948051156      3.85e-05   Normal BFGS step
    9    -192.4948051262      9.23e-06   Normal BFGS step
   10    -192.4948051276      2.19e-06   Normal BFGS step
   11    -192.4948051277      8.55e-07  Convergence criterion met
 ---------------------------------------
 SCF time:   CPU 790.69s  wall 22.00s 

************** Final PCM Free Energy Summary **************
 G_electrostatic  =      -0.09874689 hartree =     -61.96460565 kcal/mol
 G_cavitation     =       0.00000000 hartree =       0.00000000 kcal/mol
 G_dispersion     =       0.00000000 hartree =       0.00000000 kcal/mol
 G_repulsion      =       0.00000000 hartree =       0.00000000 kcal/mol
 --------------------------------------------------
 Non-electrostatic Free Energy =       0.00000000 hartree =       0.00000000 kcal/mol
 Total                         =      -0.09874689 hartree =     -61.96460565 kcal/mol
 --------------------------------------------------
 SCF Energy (H0 + V/2)                       =    -192.49480513 
 Solute Internal Energy (H0)                 =    -192.39605824 
 Total Free Energy (H0 + V/2 + non-elec)     =    -192.49480513 hartree
                                             = -120792.31333593 kcal/mol
***********************************************************

 SCF   energy in the final basis set =     -192.4948051277
 Total energy in the final basis set =     -192.4948051277
 
 --------------------------------------------------------------
 
                    Orbital Energies (a.u.)
 --------------------------------------------------------------
 
 Alpha MOs
 -- Occupied --
-19.1758 -10.2800 -10.2145 -10.1601  -1.1112  -0.8464  -0.7649  -0.6106
 -0.5624  -0.5308  -0.5009  -0.4173  -0.3947  -0.3804  -0.2808  -0.2369
 -- Virtual --
  0.0843   0.1068   0.1207   0.1298   0.1395   0.1609   0.1634   0.1762
  0.1969   0.2008   0.2175   0.2238   0.2333   0.2457   0.2656   0.2886
  0.2954   0.3025   0.3139   0.3221   0.3329   0.3426   0.3588   0.3652
  0.3734   0.3781   0.3802   0.3841   0.3960   0.4032   0.4167   0.4261
  0.4284   0.4311   0.4396   0.4607   0.4645   0.4781   0.4973   0.5120
  0.5169   0.5315   0.5429   0.5499   0.5780   0.5862   0.6042   0.6163
  0.6272   0.6475   0.6569   0.6789   0.6855   0.7091   0.7154   0.7288
  0.7444   0.7541   0.7869   0.8122   0.8206   0.8337   0.8628   0.8772
  0.8895   0.9131   0.9260   0.9543   0.9772   1.0057   1.0397   1.0684
  1.1020   1.1116   1.1415   1.1505   1.1839   1.2144   1.2189   1.2443
  1.2607   1.2875   1.3082   1.3272   1.3373   1.3625   1.4015   1.4370
  1.4487   1.4580   1.4837   1.4897   1.5508   1.5837   1.6027   1.6164
  1.6749   1.6877   1.7138   1.7227   1.7762   1.8086   1.8183   1.9415
  1.9632   1.9674   2.0422   2.1119   2.1152   2.1417   2.1835   2.2525
  2.2691   2.3354   2.4281   2.4615   2.4922   2.5711   2.6523   2.7975
  2.8312   2.8666   2.8900   2.9020   2.9207   2.9457   2.9744   2.9894
  3.0137   3.0428   3.0740   3.0887   3.1194   3.1606   3.1868   3.1983
  3.2200   3.2524   3.2815   3.3112   3.3336   3.3790   3.4012   3.4045
  3.4274   3.4405   3.4938   3.5113   3.5426   3.5728   3.6072   3.6271
  3.6684   3.6816   3.7008   3.7444   3.7837   3.8249   3.8468   3.8675
  3.8914   3.9763   4.0255   4.0702   4.0846   4.1011   4.1728   4.1982
  4.2189   4.2552   4.2832   4.3400   4.3820   4.4117   4.4330   4.4733
  4.5127   4.6092   4.6344   4.6874   4.7091   4.7301   4.7605   4.7816
  4.8319   4.8692   4.9415   4.9746   5.0582   5.1045   5.1746   5.2299
  5.2616   5.3366   5.3948   5.4486   5.4666   5.4979   5.5337   5.6704
  5.7525   5.7900   5.7977   5.8490   5.9446   6.0421   6.0870   6.1853
  6.2757   6.6454   6.8124   6.9119   7.0743   7.1312   7.5600   7.6674
 22.5783  23.6842  23.8640  44.4715
 --------------------------------------------------------------
 
          Ground-State Mulliken Net Atomic Charges

     Atom                 Charge (a.u.)
  ----------------------------------------
      1 C                    -0.397332
      2 C                    -0.492911
      3 O                    -0.426036
      4 C                    -0.075765
      5 H                     0.242055
      6 H                    -0.070536
      7 H                     0.043373
      8 H                     0.074552
      9 H                     0.102601
  ----------------------------------------
  Sum of atomic charges =    -1.000000

  Building new vdw surfaces
         Merz-Kollman RESP Net Atomic Charges

     Atom                 Charge (a.u.)
  ----------------------------------------
      1 C                    -1.327751
      2 C                     0.231009
      3 O                    -0.294966
      4 C                    -0.284610
      5 H                     0.177173
      6 H                     0.177173
      7 H                     0.107325
      8 H                     0.107325
      9 H                     0.107325
  ----------------------------------------
  Sum of atomic charges =    -1.000000

  Related Dipole Moment =    12.6532 (X  9.1749 Y -4.8368 Z -7.2478)

 -----------------------------------------------------------------
                    Cartesian Multipole Moments
 -----------------------------------------------------------------
    Charge (ESU x 10^10)
                -4.8032
    Dipole Moment (Debye)
         X       9.3828      Y      -4.9778      Z      -7.2400
       Tot      12.8543
    Quadrupole Moments (Debye-Ang)
        XX     -45.5681     XY       9.0368     YY     -36.0500
        XZ      15.1873     YZ      -8.5731     ZZ     -42.3683
    Octopole Moments (Debye-Ang^2)
       XXX      65.1607    XXY     -26.1181    XYY      24.3397
       YYY     -27.3850    XXZ     -66.8258    XYZ      17.4524
       YYZ     -47.9568    XZZ      40.0320    YZZ     -21.9693
       ZZZ    -133.2312
    Hexadecapole Moments (Debye-Ang^3)
      XXXX    -351.6233   XXXY     115.2725   XXYY     -97.3784
      XYYY      90.4482   YYYY    -161.6343   XXXZ     169.7744
      XXYZ     -61.0728   XYYZ      58.8233   YYYZ     -89.3999
      XXZZ    -180.6547   XYZZ      55.3251   YYZZ    -118.9237
      XZZZ     165.4871   YZZZ    -100.0127   ZZZZ    -498.0297
 -----------------------------------------------------------------
 Calculating analytic gradient of the SCF energy
 Gradient of SCF Energy
            1           2           3           4           5           6
    1   0.1322306   0.0023589   0.0118676   0.0256751  -0.1486724  -0.0013676
    2  -0.1375983   0.0816963   0.0048041  -0.0082904   0.0491448   0.0051116
    3  -0.0257531   0.1927896  -0.0046380  -0.0028017  -0.1511413  -0.0035347
            7           8           9
    1   0.0025420  -0.0082442  -0.0163900
    2   0.0102506   0.0201776  -0.0252964
    3   0.0181412  -0.0220927  -0.0009694
 Max gradient component =       1.928E-01
 RMS gradient           =       6.981E-02
 Computing fast CPCM-SWIG gradient
 Updating gradient with PCM contributions...
 -- total gradient after adding PCM contribution --
---------------------------------------------------
  Atom         X              Y              Z     
---------------------------------------------------
   1       0.088073      -0.099912      -0.061972
   2      -0.013366       0.038662       0.146367
   3       0.035433      -0.005819      -0.009934
   4       0.000668      -0.007284      -0.006122
   5      -0.143609       0.052653      -0.109215
   6       0.036660       0.018460       0.045082
   7       0.001867      -0.000228      -0.001621
   8      -0.002401       0.003675      -0.002497
   9      -0.003324      -0.000207      -0.000087
---------------------------------------------------
 Number of fixed atoms: 0
 Gradient time:  CPU 405.76 s  wall 11.99 s

     Step 3	:
        Energy is -192.4948051277
                            Maximum         Tolerance       Converged?
         Gradient           1.84689601e-01	3.00000000e-04	false
         Displacement       4.39786472e-01	1.20000000e-03	false
         Energy change      4.67016771e-02	1.00000000e-06	false


	OPTIMIZATION CYCLE:	4

 Scaling Magnitude of Eigenvalues
 	Minimum: -25.00000000	 Maximum: 25.00000000
 21 Hessian Eigenvalues to form next step
   0.00192475   0.01487378   0.01986466   0.02144105   0.03893610
   0.06099691   0.08449478   0.08923013   0.11538816   0.12373991
   0.16046234   0.17397684   0.20482850   0.25954038   0.30491832
   0.31798670   0.33892883   0.37125581   0.41840120   0.48421750
   0.67416691

 Minimum Search taking a RFO step
 Searching for Lambda that minimizes along all modes
	Value of Lambda   -0.09375486
	Norm  of Stepsize  0.46062132
	RMS   of Stepsize  0.07899590

	Performing Iterative Coordinate Back-Transformation

	  Starting from Previous Position

	  iter:	0	rms: 9.6299183494e-02	maxdev: 3.7886967268e-01
	  iter:	1	rms: 7.8856692015e-03	maxdev: 2.4150351857e-02
	  iter:	2	rms: 5.0598851239e-04	maxdev: 1.3134921162e-03
	  iter:	3	rms: 3.4821162210e-05	maxdev: 8.9812499363e-05
	  iter:	4	rms: 3.4531404254e-06	maxdev: 7.9097878068e-06
	  iter:	5	rms: 2.6534991718e-07	maxdev: 6.5333086329e-07	 Success!

	Finished Iterative Coordinate Back-Transformation
 ----------------------------------------------------------------
             Standard Nuclear Orientation (Angstroms)
    I     Atom           X                Y                Z
 ----------------------------------------------------------------
    1      C      -1.5643436459     1.0215655161     2.0906671689
    2      C      -0.5642639788     0.2647389030     1.6751416073
    3      O      -0.2292115005    -0.2615262382     0.4021911178
    4      C       1.1110809543    -0.6546957343     0.2668093122
    5      H       0.2589699265     0.1088359649     2.3779125072
    6      H      -1.0595260736     1.3944431678     3.1124902974
    7      H       1.2188803184    -1.1447290653    -0.7005808557
    8      H       1.4026688800    -1.3512283139     1.0587081825
    9      H       1.7887015782     0.2053807653     0.3020484036
 ----------------------------------------------------------------
 Nuclear Repulsion Energy =         110.69271496 hartrees
 There are       16 alpha and       16 beta electrons
 Discretize the solute cavity surface with Lebedev spheres
	Using 194 Lebedev grid points for each H atom
	Using 194 Lebedev grid points for other atoms
	Atomic van der Waals radii (UFF set) will be scaled by 1.10
 Using smooth SwiG surface discretization
 Remove points where switching function is < 1.0e-08
 Keep 856 surface tesserae and discard 890 interior tesserae
 Molecular Surface Area = 122.560 Angst**2


                       Distance Matrix (Angstroms)
             C (  1)   C (  2)   O (  3)   C (  4)   H (  5)   H (  6)
   C (  2)  1.321214
   O (  3)  2.505964  1.417610
   C (  4)  3.646122  2.373929  1.403315
   H (  5)  2.059140  1.093575  2.068566  2.401214
   H (  6)  1.199167  1.894066  3.282892  4.124125  1.982630
   H (  7)  4.497803  3.287896  2.023147  1.089769  3.459765  5.116448
   H (  8)  3.936782  2.619192  2.069178  1.094205  2.275991  4.221272
   H (  9)  3.886930  2.724951  2.073645  1.095510  2.580429  4.174309
             H (  7)   H (  8)
   H (  8)  1.780876
   H (  9)  1.775601  1.773298
 
 Applying Cartesian multipole field
    Component          Value
    ---------          -----
     (2,0,0)        1.00000E-11
     (0,2,0)        2.00000E-11
     (0,0,2)       -3.00000E-11
 Nucleus-field energy     =-4.4049020336e-09 hartrees
 Requested basis set is def2-TZVPPD
 There are 88 shells and 236 basis functions
 A cutoff of  1.0D-16 yielded   3847 shell pairs
 There are     27999 function pairs (     35407 Cartesian)
 Smallest overlap matrix eigenvalue = 7.64E-06
 Guess MOs from SCF MO coefficient file

 -----------------------------------------------------------------------
  General SCF calculation program by
  Eric Jon Sundstrom, Paul Horn, Yuezhi Mao, Dmitri Zuev, Alec White,
  David Stuck, Shaama M.S., Shane Yost, Joonho Lee, David Small,
  Daniel Levine, Susi Lehtola, Hugh Burton, Evgeny Epifanovsky,
  Bang C. Huynh
 -----------------------------------------------------------------------
 Exchange:     0.1670 Hartree-Fock + 1.0000 wB97X-V + LR-HF
 Correlation:  1.0000 wB97X-V
 Using SG-3 standard quadrature grid
 Nonlocal Correlation:  VV10 with C = 0.0100 and b = 6.00 and scale = 1.00000
 Grid used for NLC:  SG-1 standard quadrature
 A restricted SCF calculation will be
 performed using Roothaan-Hall, GDM
 SCF converges when RMS gradient is below 1.0e-06
 ---------------------------------------
  Cycle       Energy         DIIS error
 ---------------------------------------
    1    -192.4259007264      2.05e-03  Roothaan Step
 ---------------------------------------
  Cycle       Energy        RMS Gradient
 ---------------------------------------
    1    -192.5351666944      2.40e-02   Normal BFGS step
    2    -192.5401947992      9.67e-03   Normal BFGS step
    3    -192.5424155856      3.95e-03   Normal BFGS step
    4    -192.5425031465      1.03e-03   Normal BFGS step
    5    -192.5425330175      5.81e-04   Normal BFGS step
    6    -192.5425365886      1.55e-04   Normal BFGS step
    7    -192.5425373158      7.89e-05   Normal BFGS step
    8    -192.5425374444      2.56e-05   Normal BFGS step
    9    -192.5425374608      1.25e-05   Normal BFGS step
   10    -192.5425374628      5.07e-06   Normal BFGS step
   11    -192.5425374631      2.27e-06   Normal BFGS step
   12    -192.5425374631      5.68e-07  Convergence criterion met
 ---------------------------------------
 SCF time:   CPU 843.08s  wall 23.00s 

************** Final PCM Free Energy Summary **************
 G_electrostatic  =      -0.09941745 hartree =     -62.38539380 kcal/mol
 G_cavitation     =       0.00000000 hartree =       0.00000000 kcal/mol
 G_dispersion     =       0.00000000 hartree =       0.00000000 kcal/mol
 G_repulsion      =       0.00000000 hartree =       0.00000000 kcal/mol
 --------------------------------------------------
 Non-electrostatic Free Energy =       0.00000000 hartree =       0.00000000 kcal/mol
 Total                         =      -0.09941745 hartree =     -62.38539380 kcal/mol
 --------------------------------------------------
 SCF Energy (H0 + V/2)                       =    -192.54253746 
 Solute Internal Energy (H0)                 =    -192.44312001 
 Total Free Energy (H0 + V/2 + non-elec)     =    -192.54253746 hartree
                                             = -120822.26582849 kcal/mol
***********************************************************

 SCF   energy in the final basis set =     -192.5425374631
 Total energy in the final basis set =     -192.5425374631
 
 --------------------------------------------------------------
 
                    Orbital Energies (a.u.)
 --------------------------------------------------------------
 
 Alpha MOs
 -- Occupied --
-19.1862 -10.2828 -10.2455 -10.1673  -1.1310  -0.8277  -0.7616  -0.6168
 -0.5568  -0.5374  -0.4891  -0.4149  -0.4016  -0.3904  -0.2675  -0.2404
 -- Virtual --
  0.0854   0.1086   0.1184   0.1300   0.1387   0.1527   0.1619   0.1743
  0.1961   0.2007   0.2190   0.2210   0.2328   0.2484   0.2685   0.2869
  0.2956   0.3013   0.3121   0.3216   0.3343   0.3422   0.3567   0.3682
  0.3702   0.3724   0.3799   0.3919   0.3946   0.4008   0.4144   0.4204
  0.4301   0.4354   0.4416   0.4615   0.4672   0.4771   0.4824   0.5040
  0.5144   0.5302   0.5366   0.5513   0.5781   0.5841   0.5982   0.6182
  0.6225   0.6421   0.6537   0.6698   0.6812   0.7115   0.7136   0.7266
  0.7406   0.7567   0.7781   0.8190   0.8234   0.8306   0.8523   0.8661
  0.8953   0.9068   0.9288   0.9320   0.9498   0.9592   1.0291   1.0474
  1.0848   1.0962   1.1280   1.1412   1.1828   1.2036   1.2164   1.2292
  1.2574   1.2862   1.3085   1.3257   1.3383   1.3514   1.3826   1.4173
  1.4398   1.4451   1.4631   1.4825   1.5545   1.5777   1.5989   1.6326
  1.6822   1.6956   1.7159   1.7388   1.7843   1.8119   1.8364   1.9082
  1.9510   1.9669   1.9855   2.0454   2.1168   2.1538   2.1885   2.2739
  2.2991   2.3539   2.4087   2.4895   2.5009   2.5852   2.6113   2.8067
  2.8282   2.8543   2.8767   2.8934   2.9181   2.9237   2.9444   2.9897
  3.0104   3.0289   3.0607   3.0995   3.1085   3.1568   3.1822   3.1889
  3.2286   3.2392   3.2818   3.3013   3.3240   3.3629   3.4068   3.4153
  3.4269   3.4519   3.4856   3.5195   3.5355   3.5742   3.6100   3.6158
  3.6441   3.6597   3.6966   3.7206   3.7437   3.7961   3.8290   3.8574
  3.8987   3.9369   3.9667   3.9911   4.0606   4.0712   4.0856   4.1261
  4.1916   4.2210   4.2397   4.2962   4.3230   4.3377   4.4245   4.4271
  4.4974   4.5664   4.5803   4.6289   4.6940   4.7183   4.7380   4.7767
  4.7843   4.8378   4.9099   4.9591   5.0344   5.0612   5.0870   5.1676
  5.2293   5.2621   5.3057   5.3598   5.4117   5.4711   5.4847   5.5491
  5.6057   5.6770   5.7523   5.7868   5.8077   5.8436   6.0856   6.1722
  6.2624   6.6243   6.7127   6.9218   7.0905   7.1126   7.5453   7.6315
 22.5999  23.4446  23.8581  44.4843
 --------------------------------------------------------------
 
          Ground-State Mulliken Net Atomic Charges

     Atom                 Charge (a.u.)
  ----------------------------------------
      1 C                    -0.549333
      2 C                    -0.189928
      3 O                    -0.404042
      4 C                    -0.107140
      5 H                     0.065878
      6 H                    -0.069983
      7 H                     0.041921
      8 H                     0.092469
      9 H                     0.120157
  ----------------------------------------
  Sum of atomic charges =    -1.000000

  Building new vdw surfaces
         Merz-Kollman RESP Net Atomic Charges

     Atom                 Charge (a.u.)
  ----------------------------------------
      1 C                    -1.247953
      2 C                     0.062143
      3 O                    -0.221731
      4 C                    -0.228017
      5 H                     0.178408
      6 H                     0.178408
      7 H                     0.092914
      8 H                     0.092914
      9 H                     0.092914
  ----------------------------------------
  Sum of atomic charges =    -1.000000

  Related Dipole Moment =    13.1748 (X  9.5180 Y -4.7829 Z -7.7529)

 -----------------------------------------------------------------
                    Cartesian Multipole Moments
 -----------------------------------------------------------------
    Charge (ESU x 10^10)
                -4.8032
    Dipole Moment (Debye)
         X       9.7870      Y      -4.8454      Z      -7.7516
       Tot      13.3922
    Quadrupole Moments (Debye-Ang)
        XX     -46.7516     XY       8.9012     YY     -35.8584
        XZ      16.0533     YZ      -8.1124     ZZ     -43.9742
    Octopole Moments (Debye-Ang^2)
       XXX      71.3846    XXY     -26.3625    XYY      24.7322
       YYY     -26.0674    XXZ     -69.9239    XYZ      17.1404
       YYZ     -47.7642    XZZ      42.8104    YZZ     -20.2946
       ZZZ    -138.7393
    Hexadecapole Moments (Debye-Ang^3)
      XXXX    -368.7615   XXXY     116.8941   XXYY     -98.2745
      XYYY      88.7667   YYYY    -157.3859   XXXZ     179.1625
      XXYZ     -61.0604   XYYZ      58.7444   YYYZ     -85.4556
      XXZZ    -188.2433   XYZZ      54.3272   YYZZ    -117.3644
      XZZZ     171.9324   YZZZ     -93.1749   ZZZZ    -510.3288
 -----------------------------------------------------------------
 Calculating analytic gradient of the SCF energy
 Gradient of SCF Energy
            1           2           3           4           5           6
    1   0.0487391  -0.0168482   0.0057585   0.0238267  -0.0271652  -0.0143149
    2  -0.0591941   0.0427840   0.0140700   0.0001666   0.0013660  -0.0003496
    3   0.0187412   0.0169880   0.0060202   0.0002709  -0.0193751  -0.0185370
            7           8           9
    1   0.0003107  -0.0052464  -0.0150603
    2   0.0102081   0.0190431  -0.0280941
    3   0.0208307  -0.0212507  -0.0036881
 Max gradient component =       5.919E-02
 RMS gradient           =       2.240E-02
 Computing fast CPCM-SWIG gradient
 Updating gradient with PCM contributions...
 -- total gradient after adding PCM contribution --
---------------------------------------------------
  Atom         X              Y              Z     
---------------------------------------------------
   1      -0.002562      -0.025266      -0.021947
   2      -0.042304      -0.001777      -0.007866
   3       0.026233       0.000934      -0.001454
   4      -0.000609      -0.000281      -0.003378
   5      -0.011367       0.008668       0.006431
   6       0.032546       0.016790       0.028475
   7       0.000553       0.000741       0.000838
   8      -0.001402       0.002123      -0.000761
   9      -0.001089      -0.001931      -0.000338
---------------------------------------------------
 Number of fixed atoms: 0
 Gradient time:  CPU 408.59 s  wall 12.02 s

     Step 4	:
        Energy is -192.5425374631
                            Maximum         Tolerance       Converged?
         Gradient           2.29268145e-02	3.00000000e-04	false
         Displacement       3.21232134e-01	1.20000000e-03	false
         Energy change      4.77323354e-02	1.00000000e-06	false


	OPTIMIZATION CYCLE:	5

 Scaling Magnitude of Eigenvalues
 	Minimum: -25.00000000	 Maximum: 25.00000000
 21 Hessian Eigenvalues to form next step
   0.00192551   0.01486521   0.02023211   0.02083403   0.03893237
   0.06285894   0.08465000   0.08922737   0.11771135   0.12439902
   0.16164616   0.17409111   0.20688310   0.25698183   0.30531473
   0.31738373   0.33889053   0.37400455   0.42056364   0.49498002
   0.68706413

 Minimum Search taking a RFO step
 Searching for Lambda that minimizes along all modes
	Value of Lambda   -0.02303931
	Norm  of Stepsize  0.69142437
	RMS   of Stepsize  0.11857830

	Performing Iterative Coordinate Back-Transformation

	  Starting from Previous Position

	  iter:	0	rms: 1.2039463906e-01	maxdev: 3.2219139460e-01
	  iter:	1	rms: 1.2420139720e-02	maxdev: 2.9523418599e-02
	  iter:	2	rms: 5.2146418364e-04	maxdev: 1.3392118260e-03
	  iter:	3	rms: 8.7715368435e-06	maxdev: 2.4847295927e-05
	  iter:	4	rms: 2.9173678634e-07	maxdev: 7.3869555564e-07	 Success!

	Finished Iterative Coordinate Back-Transformation
 ----------------------------------------------------------------
             Standard Nuclear Orientation (Angstroms)
    I     Atom           X                Y                Z
 ----------------------------------------------------------------
    1      C      -1.5068755399     1.1065740638     2.1749319921
    2      C      -0.5252198852     0.2211634547     1.6895059165
    3      O      -0.2788624468    -0.3020377859     0.3927901742
    4      C       1.0814413541    -0.6286338607     0.2924238764
    5      H       0.2819287856    -0.0530786566     2.2755422219
    6      H      -1.0478037757     1.4004389161     2.9773867002
    7      H       1.2538870634    -1.1220654829    -0.6666846565
    8      H       1.3912361322    -1.3016859074     1.1054247140
    9      H       1.7132247711     0.2621102244     0.3440668022
 ----------------------------------------------------------------
 Nuclear Repulsion Energy =         110.99347035 hartrees
 There are       16 alpha and       16 beta electrons
 Discretize the solute cavity surface with Lebedev spheres
	Using 194 Lebedev grid points for each H atom
	Using 194 Lebedev grid points for other atoms
	Atomic van der Waals radii (UFF set) will be scaled by 1.10
 Using smooth SwiG surface discretization
 Remove points where switching function is < 1.0e-08
 Keep 847 surface tesserae and discard 899 interior tesserae
 Molecular Surface Area = 120.468 Angst**2


                       Distance Matrix (Angstroms)
             C (  1)   C (  2)   O (  3)   C (  4)   H (  5)   H (  6)
   C (  2)  1.408275
   O (  3)  2.582292  1.419825
   C (  4)  3.640627  2.292456  1.402557
   H (  5)  2.134183  1.034474  1.980208  2.214327
   H (  6)  0.970071  1.822751  3.189018  3.982442  2.091289
   H (  7)  4.545705  3.243628  2.035744  1.092292  3.277825  4.994003
   H (  8)  3.916965  2.516550  2.072770  1.099974  2.039303  4.093243
   H (  9)  3.799241  2.611995  2.071002  1.093271  2.424572  3.981638
             H (  7)   H (  8)
   H (  8)  1.786477
   H (  9)  1.774416  1.768842
 
 Applying Cartesian multipole field
    Component          Value
    ---------          -----
     (2,0,0)        1.00000E-11
     (0,2,0)        2.00000E-11
     (0,0,2)       -3.00000E-11
 Nucleus-field energy     =-4.5444329078e-09 hartrees
 Requested basis set is def2-TZVPPD
 There are 88 shells and 236 basis functions
 A cutoff of  1.0D-16 yielded   3853 shell pairs
 There are     28033 function pairs (     35448 Cartesian)
 Smallest overlap matrix eigenvalue = 1.11E-05
 Guess MOs from SCF MO coefficient file

 -----------------------------------------------------------------------
  General SCF calculation program by
  Eric Jon Sundstrom, Paul Horn, Yuezhi Mao, Dmitri Zuev, Alec White,
  David Stuck, Shaama M.S., Shane Yost, Joonho Lee, David Small,
  Daniel Levine, Susi Lehtola, Hugh Burton, Evgeny Epifanovsky,
  Bang C. Huynh
 -----------------------------------------------------------------------
 Exchange:     0.1670 Hartree-Fock + 1.0000 wB97X-V + LR-HF
 Correlation:  1.0000 wB97X-V
 Using SG-3 standard quadrature grid
 Nonlocal Correlation:  VV10 with C = 0.0100 and b = 6.00 and scale = 1.00000
 Grid used for NLC:  SG-1 standard quadrature
 A restricted SCF calculation will be
 performed using Roothaan-Hall, GDM
 SCF converges when RMS gradient is below 1.0e-06
 ---------------------------------------
  Cycle       Energy         DIIS error
 ---------------------------------------
    1    -192.4014237243      2.09e-03  Roothaan Step
 ---------------------------------------
  Cycle       Energy        RMS Gradient
 ---------------------------------------
    1    -192.5193394618      1.25e-02   Normal BFGS step
    2    -192.5248317984      6.49e-03   Normal BFGS step
    3    -192.5258363552      2.07e-03   Normal BFGS step
[...]
      6 H                    -0.106009
      7 H                     0.047219
      8 H                     0.095986
      9 H                     0.114707
  ----------------------------------------
  Sum of atomic charges =    -1.000000

  Building new vdw surfaces
         Merz-Kollman RESP Net Atomic Charges

     Atom                 Charge (a.u.)
  ----------------------------------------
      1 C                    -1.240351
      2 C                    -0.020253
      3 O                    -0.271115
      4 C                    -0.057400
      5 H                     0.220585
      6 H                     0.220585
      7 H                     0.049316
      8 H                     0.049316
      9 H                     0.049316
  ----------------------------------------
  Sum of atomic charges =    -1.000000

  Related Dipole Moment =    12.5113 (X  9.0931 Y -4.6764 Z -7.2097)

 -----------------------------------------------------------------
                    Cartesian Multipole Moments
 -----------------------------------------------------------------
    Charge (ESU x 10^10)
                -4.8032
    Dipole Moment (Debye)
         X       9.3225      Y      -4.7187      Z      -7.1549
       Tot      12.6636
    Quadrupole Moments (Debye-Ang)
        XX     -45.4044     XY       7.7858     YY     -35.2489
        XZ      13.8674     YZ      -7.1211     ZZ     -41.1835
    Octopole Moments (Debye-Ang^2)
       XXX      63.6363    XXY     -23.4737    XYY      20.7099
       YYY     -27.2198    XXZ     -63.5836    XYZ      13.2104
       YYZ     -46.0757    XZZ      33.3404    YZZ     -17.7557
       ZZZ    -129.3234
    Hexadecapole Moments (Debye-Ang^3)
      XXXX    -349.6919   XXXY     108.7655   XXYY     -90.8721
      XYYY      84.1132   YYYY    -156.1905   XXXZ     157.5496
      XXYZ     -51.8386   XYYZ      49.6900   YYYZ     -84.9822
      XXZZ    -165.8980   XYZZ      43.1218   YYZZ    -112.3498
      XZZZ     138.4667   YZZZ     -84.8269   ZZZZ    -475.0052
 -----------------------------------------------------------------
 Calculating analytic gradient of the SCF energy
 Gradient of SCF Energy
            1           2           3           4           5           6
    1   0.0431912   0.0229886  -0.0096890   0.0229227  -0.0209700  -0.0391036
    2  -0.0154994   0.0143805   0.0056909  -0.0045646   0.0053177  -0.0096951
    3   0.0597182   0.0399531   0.0065197   0.0042177  -0.0187514  -0.0889958
            7           8           9
    1   0.0002747  -0.0030011  -0.0166134
    2   0.0089009   0.0196073  -0.0241381
    3   0.0217480  -0.0200285  -0.0043810
 Max gradient component =       8.900E-02
 RMS gradient           =       2.810E-02
 Computing fast CPCM-SWIG gradient
 Updating gradient with PCM contributions...
 -- total gradient after adding PCM contribution --
---------------------------------------------------
  Atom         X              Y              Z     
---------------------------------------------------
   1      -0.000012       0.000043       0.000232
   2       0.000106       0.000062      -0.000263
   3      -0.000063       0.000077       0.000047
   4      -0.000043       0.000123       0.000107
   5       0.000100       0.000027       0.000068
   6      -0.000067      -0.000143      -0.000170
   7      -0.000006       0.000021      -0.000027
   8       0.000016      -0.000086       0.000076
   9      -0.000032      -0.000125      -0.000070
---------------------------------------------------
 Number of fixed atoms: 0
 Gradient time:  CPU 407.04 s  wall 12.04 s

     Step 37	:
        Energy is -192.5602223906
                            Maximum         Tolerance       Converged?
         Gradient           1.65793583e-04	3.00000000e-04	true
         Displacement       1.29542437e-02	1.20000000e-03	false
         Energy change      4.57463329e-06	1.00000000e-06	false


	OPTIMIZATION CYCLE:	38

 Scaling Magnitude of Eigenvalues
 	Minimum: -25.00000000	 Maximum: 25.00000000
 21 Hessian Eigenvalues to form next step
   0.00482375   0.01367356   0.02653690   0.03224168   0.07336377
   0.08838049   0.09054985   0.12248034   0.14383405   0.17247861
   0.18520704   0.21791854   0.24833572   0.30467350   0.32261363
   0.34232533   0.35407385   0.41927157   0.43773160   0.47090772
   3.05783581

 Minimum Search taking a RFO step
 Searching for Lambda that minimizes along all modes
	Value of Lambda   -0.00000055
	Norm  of Stepsize  0.00347067
	RMS   of Stepsize  0.00059521

	Performing Iterative Coordinate Back-Transformation

	  Starting from Previous Position

	  iter:	0	rms: 7.2660944775e-04	maxdev: 1.8743827820e-03
	  iter:	1	rms: 1.4207687312e-04	maxdev: 3.7563556868e-04
	  iter:	2	rms: 1.5855782245e-05	maxdev: 3.7286349939e-05
	  iter:	3	rms: 4.6315774313e-06	maxdev: 1.2415941002e-05
	  iter:	4	rms: 6.7058982020e-07	maxdev: 1.6795373881e-06	 Success!

	Finished Iterative Coordinate Back-Transformation
 ----------------------------------------------------------------
             Standard Nuclear Orientation (Angstroms)
    I     Atom           X                Y                Z
 ----------------------------------------------------------------
    1      C      -1.5232091827     1.0190358563     2.0711840392
    2      C      -0.4034170128     0.3820828623     1.7418559679
    3      O      -0.1998692194    -0.1744082703     0.4553653404
    4      C       1.0979250868    -0.6836202957     0.2547612946
    5      H       0.4731066303     0.1878642973     2.3760618585
    6      H      -1.4198176925     1.3297229273     3.1245504009
    7      H       1.1362468761    -1.1034089195    -0.7523512976
    8      H       1.3405013447    -1.4765827115     0.9757333802
    9      H       1.8614896280     0.1020992193     0.3382267569
 ----------------------------------------------------------------
 Nuclear Repulsion Energy =         110.98367712 hartrees
 There are       16 alpha and       16 beta electrons
 Discretize the solute cavity surface with Lebedev spheres
	Using 194 Lebedev grid points for each H atom
	Using 194 Lebedev grid points for other atoms
	Atomic van der Waals radii (UFF set) will be scaled by 1.10
 Using smooth SwiG surface discretization
 Remove points where switching function is < 1.0e-08
 Keep 873 surface tesserae and discard 873 interior tesserae
 Molecular Surface Area = 122.515 Angst**2


                       Distance Matrix (Angstroms)
             C (  1)   C (  2)   O (  3)   C (  4)   H (  5)   H (  6)
   C (  2)  1.329699
   O (  3)  2.405495  1.416394
   C (  4)  3.615076  2.366686  1.408478
   H (  5)  2.183821  1.099196  2.067175  2.376931
   H (  6)  1.103085  1.960341  3.297762  4.316048  2.333932
   H (  7)  4.421519  3.286080  2.026531  1.091772  3.448784  5.242515
   H (  8)  3.953348  2.661359  2.083070  1.098833  2.341725  4.484655
   H (  9)  3.911534  2.679248  2.083117  1.098796  2.467334  4.476342
             H (  7)   H (  8)
   H (  8)  1.779678
   H (  9)  1.780053  1.780472
 
 Applying Cartesian multipole field
    Component          Value
    ---------          -----
     (2,0,0)        1.00000E-11
     (0,2,0)        2.00000E-11
     (0,0,2)       -3.00000E-11
 Nucleus-field energy     =-4.5396670235e-09 hartrees
 Requested basis set is def2-TZVPPD
 There are 88 shells and 236 basis functions
 A cutoff of  1.0D-16 yielded   3840 shell pairs
 There are     27954 function pairs (     35359 Cartesian)
 Smallest overlap matrix eigenvalue = 7.57E-06
 Guess MOs from SCF MO coefficient file

 -----------------------------------------------------------------------
  General SCF calculation program by
  Eric Jon Sundstrom, Paul Horn, Yuezhi Mao, Dmitri Zuev, Alec White,
  David Stuck, Shaama M.S., Shane Yost, Joonho Lee, David Small,
  Daniel Levine, Susi Lehtola, Hugh Burton, Evgeny Epifanovsky,
  Bang C. Huynh
 -----------------------------------------------------------------------
 Exchange:     0.1670 Hartree-Fock + 1.0000 wB97X-V + LR-HF
 Correlation:  1.0000 wB97X-V
 Using SG-3 standard quadrature grid
 Nonlocal Correlation:  VV10 with C = 0.0100 and b = 6.00 and scale = 1.00000
 Grid used for NLC:  SG-1 standard quadrature
 A restricted SCF calculation will be
 performed using Roothaan-Hall, GDM
 SCF converges when RMS gradient is below 1.0e-06
 ---------------------------------------
  Cycle       Energy         DIIS error
 ---------------------------------------
    1    -192.4594641411      5.69e-04  Roothaan Step
 ---------------------------------------
  Cycle       Energy        RMS Gradient
 ---------------------------------------
    1    -192.5540706379      2.73e-02   Normal BFGS step
    2    -192.5579735563      1.35e-02   Normal BFGS step
    3    -192.5601098132      3.28e-03   Normal BFGS step
    4    -192.5601967834      9.23e-04   Normal BFGS step
    5    -192.5602195193      4.77e-04   Normal BFGS step
    6    -192.5602222619      2.26e-04   Normal BFGS step
    7    -192.5602226816      6.85e-05   Normal BFGS step
    8    -192.5602227809      1.82e-05   Normal BFGS step
    9    -192.5602227932      5.91e-06   Normal BFGS step
   10    -192.5602227941      2.31e-06   Normal BFGS step
   11    -192.5602227943      9.72e-07  Convergence criterion met
 ---------------------------------------
 SCF time:   CPU 790.99s  wall 22.00s 

************** Final PCM Free Energy Summary **************
 G_electrostatic  =      -0.10075334 hartree =     -63.22367360 kcal/mol
 G_cavitation     =       0.00000000 hartree =       0.00000000 kcal/mol
 G_dispersion     =       0.00000000 hartree =       0.00000000 kcal/mol
 G_repulsion      =       0.00000000 hartree =       0.00000000 kcal/mol
 --------------------------------------------------
 Non-electrostatic Free Energy =       0.00000000 hartree =       0.00000000 kcal/mol
 Total                         =      -0.10075334 hartree =     -63.22367360 kcal/mol
 --------------------------------------------------
 SCF Energy (H0 + V/2)                       =    -192.56022279 
 Solute Internal Energy (H0)                 =    -192.45946946 
 Total Free Energy (H0 + V/2 + non-elec)     =    -192.56022279 hartree
                                             = -120833.36354128 kcal/mol
***********************************************************

 SCF   energy in the final basis set =     -192.5602227943
 Total energy in the final basis set =     -192.5602227943
 
 --------------------------------------------------------------
 
                    Orbital Energies (a.u.)
 --------------------------------------------------------------
 
 Alpha MOs
 -- Occupied --
-19.1803 -10.2806 -10.2443 -10.1561  -1.1261  -0.8223  -0.7516  -0.6207
 -0.5546  -0.5340  -0.4960  -0.4229  -0.3996  -0.3911  -0.2591  -0.2411
 -- Virtual --
  0.0867   0.1086   0.1188   0.1331   0.1368   0.1495   0.1639   0.1773
  0.1957   0.2066   0.2115   0.2261   0.2436   0.2503   0.2652   0.2874
  0.2975   0.3086   0.3147   0.3274   0.3341   0.3440   0.3532   0.3595
  0.3682   0.3726   0.3787   0.3945   0.4001   0.4022   0.4127   0.4228
  0.4258   0.4352   0.4489   0.4581   0.4707   0.4739   0.4831   0.5043
  0.5153   0.5396   0.5475   0.5492   0.5723   0.5726   0.5789   0.6112
  0.6438   0.6498   0.6541   0.6731   0.6883   0.7086   0.7110   0.7277
  0.7336   0.7668   0.7742   0.8134   0.8228   0.8296   0.8629   0.8849
  0.9003   0.9130   0.9353   0.9374   0.9513   0.9610   1.0231   1.0495
  1.0879   1.1025   1.1440   1.1569   1.1687   1.1975   1.2009   1.2300
  1.2600   1.3069   1.3151   1.3288   1.3454   1.3667   1.3739   1.4236
  1.4307   1.4540   1.4732   1.4944   1.5382   1.5998   1.6106   1.6801
  1.7012   1.7083   1.7201   1.7242   1.7873   1.8140   1.8641   1.9257
  1.9514   1.9656   1.9940   2.0365   2.1265   2.1352   2.1918   2.2832
  2.3098   2.3725   2.4004   2.5105   2.5342   2.5923   2.6676   2.7844
  2.8108   2.8226   2.8694   2.8812   2.9132   2.9533   2.9696   2.9944
  3.0241   3.0290   3.0686   3.0883   3.1094   3.1201   3.1773   3.2038
  3.2357   3.2476   3.2917   3.3177   3.3670   3.3857   3.4061   3.4175
  3.4528   3.4668   3.5034   3.5331   3.5544   3.5632   3.5778   3.5987
  3.6203   3.6554   3.6824   3.7062   3.7513   3.7946   3.8315   3.8904
  3.9209   3.9471   3.9858   4.0255   4.0564   4.0678   4.1122   4.1478
  4.1863   4.2269   4.2611   4.3011   4.3173   4.3881   4.4113   4.4248
  4.4628   4.5060   4.5984   4.6383   4.6461   4.7307   4.7486   4.8472
  4.8872   4.9049   4.9268   5.0143   5.0819   5.1059   5.1551   5.1752
  5.2058   5.2723   5.3380   5.3644   5.4430   5.4627   5.4888   5.5742
  5.6353   5.6720   5.7604   5.7886   5.8024   5.8735   6.0406   6.1689
  6.2653   6.6643   6.7179   6.9208   7.0982   7.1006   7.5806   7.6417
 22.7804  23.4570  23.8621  44.4933
 --------------------------------------------------------------
 
          Ground-State Mulliken Net Atomic Charges

     Atom                 Charge (a.u.)
  ----------------------------------------
      1 C                    -0.619605
      2 C                    -0.101470
      3 O                    -0.366593
      4 C                    -0.149364
      5 H                     0.084978
      6 H                    -0.105861
      7 H                     0.047243
      8 H                     0.096001
      9 H                     0.114672
  ----------------------------------------
  Sum of atomic charges =    -1.000000

  Building new vdw surfaces
         Merz-Kollman RESP Net Atomic Charges

     Atom                 Charge (a.u.)
  ----------------------------------------
      1 C                    -1.239741
      2 C                    -0.020708
      3 O                    -0.270328
      4 C                    -0.060747
      5 H                     0.220448
      6 H                     0.220448
      7 H                     0.050209
      8 H                     0.050209
      9 H                     0.050209
  ----------------------------------------
  Sum of atomic charges =    -1.000000

  Related Dipole Moment =    12.5110 (X  9.0934 Y -4.6708 Z -7.2124)

 -----------------------------------------------------------------
                    Cartesian Multipole Moments
 -----------------------------------------------------------------
    Charge (ESU x 10^10)
                -4.8032
    Dipole Moment (Debye)
         X       9.3246      Y      -4.7137      Z      -7.1560
       Tot      12.6639
    Quadrupole Moments (Debye-Ang)
        XX     -45.4119     XY       7.7803     YY     -35.2386
        XZ      13.8761     YZ      -7.1136     ZZ     -41.1903
    Octopole Moments (Debye-Ang^2)
       XXX      63.6702    XXY     -23.4604    XYY      20.7041
       YYY     -27.1739    XXZ     -63.6073    XYZ      13.2084
       YYZ     -46.0608    XZZ      33.3731    YZZ     -17.7349
       ZZZ    -129.3574
    Hexadecapole Moments (Debye-Ang^3)
      XXXX    -349.8199   XXXY     108.7508   XXYY     -90.8538
      XYYY      84.0714   YYYY    -156.1071   XXXZ     157.6522
      XXYZ     -51.8320   XYYZ      49.6859   YYYZ     -84.9275
      XXZZ    -165.9799   XYZZ      43.1224   YYZZ    -112.3208
      XZZZ     138.5804   YZZZ     -84.7847   ZZZZ    -475.1476
 -----------------------------------------------------------------
 Calculating analytic gradient of the SCF energy
 Gradient of SCF Energy
            1           2           3           4           5           6
    1   0.0433330   0.0228769  -0.0096404   0.0229368  -0.0210727  -0.0391113
    2  -0.0153096   0.0143496   0.0057126  -0.0047160   0.0052465  -0.0097796
    3   0.0594384   0.0401087   0.0064496   0.0041945  -0.0187850  -0.0887277
            7           8           9
    1   0.0002593  -0.0030100  -0.0165716
    2   0.0088719   0.0196871  -0.0240625
    3   0.0217822  -0.0200817  -0.0043790
 Max gradient component =       8.873E-02
 RMS gradient           =       2.806E-02
 Computing fast CPCM-SWIG gradient
 Updating gradient with PCM contributions...
 -- total gradient after adding PCM contribution --
---------------------------------------------------
  Atom         X              Y              Z     
---------------------------------------------------
   1      -0.000013      -0.000023       0.000094
   2       0.000033       0.000074      -0.000083
   3       0.000016       0.000091      -0.000017
   4      -0.000039      -0.000061       0.000059
   5       0.000039       0.000040      -0.000003
   6      -0.000021      -0.000071      -0.000036
   7      -0.000009       0.000009       0.000000
   8       0.000006      -0.000011       0.000010
   9      -0.000012      -0.000048      -0.000022
---------------------------------------------------
 Number of fixed atoms: 0
 Gradient time:  CPU 407.67 s  wall 12.08 s

     Step 38	:
        Energy is -192.5602227943
                            Maximum         Tolerance       Converged?
         Gradient           1.07340467e-04	3.00000000e-04	true
         Displacement       2.01231468e-03	1.20000000e-03	false
         Energy change      4.03626530e-07	1.00000000e-06	true

	 Optimization Converged in 38 cycles

 *****************************************************
             End of BFGS Algorithm
 *****************************************************
		----------------------------------
		   Verification of Optimization
		----------------------------------

 Eigenvalues of Hessian in Optimization Verification
  -0.00000000  -0.00000000   0.00000000   0.00000000   0.00464145
   0.01083857   0.02608025   0.03279846   0.07299643   0.08825549
   0.09024714   0.12176778   0.14890890   0.17154229   0.18466582
   0.21664758   0.24258251   0.29742652   0.31069380   0.33947037
   0.35100588   0.41787536   0.43720841   0.46646349   3.05832299


 Found a transition state
		---------------------------------
		       End of Verification
		---------------------------------

 Final energy is -192.560222794273

	*********************************
	** TRANSITION STATE CONVERGED  **
	*********************************
 ----------------------------------------------------------------
             Standard Nuclear Orientation (Angstroms)
    I     Atom           X                Y                Z
 ----------------------------------------------------------------
    1      C      -1.5232091827     1.0190358563     2.0711840392
    2      C      -0.4034170128     0.3820828623     1.7418559679
    3      O      -0.1998692194    -0.1744082703     0.4553653404
    4      C       1.0979250868    -0.6836202957     0.2547612946
    5      H       0.4731066303     0.1878642973     2.3760618585
    6      H      -1.4198176925     1.3297229273     3.1245504009
    7      H       1.1362468761    -1.1034089195    -0.7523512976
    8      H       1.3405013447    -1.4765827115     0.9757333802
    9      H       1.8614896280     0.1020992193     0.3382267569
 ----------------------------------------------------------------
 Nuclear Repulsion Energy =         110.98367712 hartrees
 There are       16 alpha and       16 beta electrons

Z-matrix Print:
$molecule
-1 1
O 
C  1 1.408478
H  2 1.091772 1 107.621922
H  2 1.098796 1 111.774827 3 119.284384 0
H  2 1.098833 1 111.768550 3 -119.236194 0
C  1 1.416394 2 113.817390 3 178.794588 0
H  6 1.099196 1 109.879238 2 -7.072257 0
C  6 1.329699 1 122.288473 2 173.698573 0
H  8 1.103085 6 107.007215 1 179.068045 0
$end

 -----------------------------------------------------------------------
                  END OF GEOMETRY OPTIMIZER USING LIBOPT3               
 -----------------------------------------------------------------------
 Total job time:  1425.33s(wall), 50458.32s(cpu) 
 Mon Dec 19 10:12:07 2022

        *************************************************************
        *                                                           *
        *  Thank you very much for using Q-Chem.  Have a nice day.  *
        *                                                           *
        *************************************************************


