*************************************************************
 
Process 2 of 8 is on nid01365 - thread support 0
Process 3 of 8 is on nid01365 - thread support 0
Process 6 of 8 is on nid01365 - thread support 0
Process 4 of 8 is on nid01365 - thread support 0
Process 7 of 8 is on nid01365 - thread support 0
Process 1 of 8 is on nid01365 - thread support 0
Process 0 of 8 is on nid01365 - thread support 0
Process 5 of 8 is on nid01365 - thread support 0
initial socket setup ...start
initial socket setup ...done 
now start server 0 ... 
nid01365 10.128.5
Q-Chem Developer Version! Running on 10.128.5.*
                  Welcome to Q-Chem
     A Quantum Leap Into The Future Of Chemistry


 Q-Chem 5.0 (beta), Q-Chem, Inc., Pleasanton, CA (2017)

 Yihan Shao,  Zhengting Gan,  E. Epifanovsky,  A. T. B. Gilbert,  M. Wormit,  
 J. Kussmann,  A. W. Lange,  A. Behn,  Jia Deng,  Xintian Feng,  D. Ghosh,  
 M. Goldey,  P. R. Horn,  L. D. Jacobson,  I. Kaliman,  R. Z. Khaliullin,  
 T. Kus,  A. Landau,  Jie Liu,  E. I. Proynov,  Y. M. Rhee,  R. M. Richard,  
 M. A. Rohrdanz,  R. P. Steele,  E. J. Sundstrom,  H. L. Woodcock III,  
 P. M. Zimmerman,  D. Zuev,  B. Albrecht,  E. Alguire,  B. Austin,  
 S. A. Baeppler,  Z. Benda,  G. J. O. Beran,  Y. A. Bernard,  E. J. Berquist,  
 K. Brandhorst,  K. B. Bravaya,  S. T. Brown,  D. Casanova,  Chun-Min Chang,  
 Yunqing Chen,  Siu Hung Chien,  K. D. Closser,  M. P. Coons,  
 D. L. Crittenden,  S. Dasgupta,  M. Diedenhofen,  R. A. DiStasio Jr.,  
 Hainam Do,  A. D. Dutoi,  R. G. Edgar,  Po-Tung Fang,  S. Fatehi,  
 Qingguo Feng,  L. Fusti-Molnar,  Qinghui Ge,  A. Ghysels,  
 A. Golubeva-Zadorozhnaya,  J. Gomes,  J. Gonthier,  A. Gunina,  
 M. W. D. Hanson-Heine,  P. H. P. Harbach,  A. W. Hauser,  J. E. Herr,  
 E. G. Hohenstein,  Z. C. Holden,  Kerwin Hui,  T.-C. Jagau,  Hyunjun Ji,  
 B. Kaduk,  K. Khistyaev,  Jaehoon Kim,  Jihan Kim,  R. A. King,  
 P. Klunzinger,  K. Koh,  D. Kosenkov,  T. Kowalczyk,  C. M. Krauter,  
 A. Kunitsa,  Ka Un Lao,  A. Laurent,  K. V. Lawler,  Joonho Lee,  
 D. Lefrancois,  S. Lehtola,  S. V. Levchenko,  D. S. Levine,  Yi-Pei Li,  
 Ching Yeh Lin,  You-Sheng Lin,  Fenglai Liu,  E. Livshits,  R. C. Lochan,  
 A. Luenser,  P. Manohar,  E. Mansoor,  S. F. Manzer,  Shan-Ping Mao,  
 Yuezhi Mao,  N. Mardirossian,  A. V. Marenich,  L. A. Martinez-Martinez,  
 S. A. Maurer,  N. J. Mayhall,  J.-M. Mewes,  A. F. Morrison,  K. Nanda,  
 T. S. Nguyen-Beck,  C. M. Oana,  R. Olivares-Amaya,  D. P. O'Neill,  
 J. A. Parkhill,  T. M. Perrine,  R. Peverati,  P. A. Pieniazek,  F. Plasser,  
 S. Prager,  A. Prociuk,  D. R. Rehn,  F. Rob,  E. Rosta,  N. J. Russ,  
 N. Sergueev,  S. M. Sharada,  S. Sharma,  D. W. Small,  A. Sodt,  T. Stauch,  
 T. Stein,  D. Stuck,  Yu-Chuan Su,  A. J. W. Thom,  T. Tsuchimochi,  
 V. Vanovschi,  L. Vogt,  O. Vydrov,  Tao Wang,  M. A. Watson,  J. Wenzel,  
 T. A. Wesolowski,  A. White,  C. F. Williams,  J. Witte,  Jun Yang,  K. Yao,  
 S. Yeganeh,  S. R. Yost,  Zhi-Qiang You,  A. Zech,  Igor Ying Zhang,  
 Xing Zhang,  Yan Zhao,  Ying Zhu,  B. R. Brooks,  G. K. L. Chan,  
 D. M. Chipman,  C. J. Cramer,  W. A. Goddard III,  M. S. Gordon,  
 W. J. Hehre,  A. Klamt,  H. F. Schaefer III,  M. W. Schmidt,  
 C. D. Sherrill,  D. G. Truhlar,  A. Warshel,  X. Xu,  A. Aspuru-Guzik,  
 R. Baer,  A. T. Bell,  N. A. Besley,  J.-D. Chai,  A. Dreuw,  B. D. Dunietz,  
 T. R. Furlani,  S. R. Gwaltney,  C.-P. Hsu,  Y. Jung,  J. Kong,  
 D. S. Lambrecht,  W. Liang,  C. Ochsenfeld,  V. A. Rassolov,  
 L. V. Slipchenko,  J. E. Subotnik,  T. Van Voorhis,  J. M. Herbert,  
 A. I. Krylov,  P. M. W. Gill,  M. Head-Gordon

 Contributors to earlier versions of Q-Chem not listed above: 
 R. D. Adamson,  J. Baker,  E. F. C. Byrd,  A. K. Chakraborty,  C.-L. Cheng,  
 H. Dachsel,  R. J. Doerksen,  G. Hawkins,  A. Heyden,  S. Hirata,  
 G. Kedziora,  F. J. Keil,  C. Kelley,  P. P. Korambath,  W. Kurlancheek,  
 A. M. Lee,  M. S. Lee,  D. Liotard,  I. Lotan,  P. E. Maslen,  N. Nair,  
 D. Neuhauser,  R. Olson,  B. Peters,  J. Ritchie,  N. E. Schultz,  
 N. Shenvi,  A. C. Simmonett,  K. S. Thanthiriwatte,  Q. Wu,  W. Zhang

 Please cite Q-Chem as follows:
 Y. Shao et al., Mol. Phys. 113, 184-215 (2015)
 DOI: 10.1080/00268976.2014.952696

 Q-Chem 4.4.2 for Intel X86 EM64T Linux

 Parts of Q-Chem use Armadillo 5.200.1 (Boston Tea Smuggler).
 http://arma.sourceforge.net/

 Q-Chem begins on Mon Jan 29 17:04:54 2018  

Host: nid01365
0

     Scratch files written to /dev/shm/eg_qchem/qchem4641.0//
 Parallel job on  8  processors
The previous job contains 0 fragments, simply inherited here
Symmetry turned off for PCM calculation

Checking the input file for inconsistencies... 	...done.

--------------------------------------------------------------
User input:
--------------------------------------------------------------

$molecule
read
$end

$rem
   BASIS  =  6-311++G**
   GUI  =  2
   JOB_TYPE  =  Frequency
   METHOD  =  B3LYP
   SYM_IGNORE = true
   SOLVENT_METHOD = PCM
$end

$pcm
  heavypoints   194
      hpoints   194
        radii   uff
       theory   cpcm
     vdwscale   1.1
$end

$solvent
  dielectric   10.0
$end

--------------------------------------------------------------
 ----------------------------------------------------------------
             Standard Nuclear Orientation (Angstroms)
    I     Atom           X                Y                Z
 ----------------------------------------------------------------
    1      O       0.8261266401     0.1684320946    -0.0028537020
    2      C       1.1206313436    -1.1715237717    -0.0064526709
    3      C      -0.5511903662     0.2914036089     0.0018547400
    4      O       2.2060370650    -1.6498702841    -0.0110331820
    5      O      -0.0670855946    -1.8579798409    -0.0038123797
    6      C      -1.0869394798    -0.9242281963     0.0012682701
    7      H      -0.9630310399     1.2842963554     0.0051269711
    8      H      -2.0975485681    -1.2905299659     0.0039019533
 ----------------------------------------------------------------
 Nuclear Repulsion Energy =   229.2699285898 hartrees
 There are       22 alpha and       22 beta electrons
 Requested basis set is 6-311++G(d,p)
 There are 46 shells and 146 basis functions

 Total QAlloc Memory Limit   2000 MB
 Mega-Array Size        61 MB
 MEM_STATIC part        62 MB
 Discretize the solute cavity surface with Lebedev spheres
	Using 194 Lebedev grid points for each H atom
	Using 194 Lebedev grid points for other atoms
	Atomic van der Waals radii will be scaled by 1.10
 Remove points where switching function is < 1.0e-08
 Keep 771 surface tesserae and discard 781 interior tesserae
 Molecular Surface Area = 120.015 Angst**2

                       Distance Matrix (Angstroms)
             O (  1)   C (  2)   C (  3)   O (  4)   O (  5)   C (  6)
   C (  2)  1.371943
   C (  3)  1.382804  2.221534
   O (  4)  2.282640  1.186146  3.372093
   O (  5)  2.214537  1.371824  2.203234  2.282641
   C (  6)  2.203122  2.221392  1.328453  3.372003  1.382758
   H (  7)  2.108626  3.220689  1.074923  4.318864  3.267522  2.212001
   H (  8)  3.267490  3.220396  2.212180  4.318587  2.108279  1.074949
             H (  7)
   H (  8)  2.813692
 
 A cutoff of  1.0D-11 yielded   1036 shell pairs
 There are     10682 function pairs (     11591 Cartesian)
 Smallest overlap matrix eigenvalue = 3.50E-05
 Guess from superposition of atomic densities
 Warning:  Energy on first SCF cycle will be non-variational
 A restricted hybrid HF-DFT SCF calculation will be
 performed using Pulay DIIS extrapolation
 Polarizable Continuum solvation model will be applied
 Exchange:     0.2000 Hartree-Fock + 0.0800 Slater + 0.7200 B88
 Correlation:  0.1900 VWN1RPA + 0.8100 LYP
 Using SG-1 standard quadrature grid
 SCF converges when DIIS error is below 1.0E-08
 -------------------------------------------------------
 OpenMP Integral computing Module                
 -------------------------------------------------------
 ---------------------------------------
  Cycle       Energy         DIIS Error
 ---------------------------------------
    1    -342.6320400243      5.71E-02
    2    -341.1633992324      7.77E-03
    3    -340.9106799624      1.40E-02
    4    -341.2694128999      2.25E-03
    5    -341.2785398285      8.05E-04
    6    -341.2796520398      1.80E-04
    7    -341.2797178696      5.45E-05
    8    -341.2797240600      1.25E-05
    9    -341.2797244993      2.45E-06
   10    -341.2797245482      2.26E-07
   11    -341.2797245190      4.76E-08
   12    -341.2797245196      5.98E-08
   13    -341.2797245194      7.49E-09 Convergence criterion met
 ---------------------------------------

************** Final PCM Free Energy Summary **************
 G_electrostatic  =      -0.01032335 hartree =      -6.47800240 kcal/mol
 G_cavitation     =       0.00000000 hartree =       0.00000000 kcal/mol
 G_dispersion     =       0.00000000 hartree =       0.00000000 kcal/mol
 G_repulsion      =       0.00000000 hartree =       0.00000000 kcal/mol
 --------------------------------------------------
 Non-electrostatic Free Energy =       0.00000000 hartree =       0.00000000 kcal/mol
 Total                         =      -0.01032335 hartree =      -6.47800240 kcal/mol
 --------------------------------------------------
 SCF Energy (H0 + V/2)                       =    -341.27972452 
 Solute Internal Energy (H0)                 =    -341.26940117 
 Total Free Energy (H0 + V/2 + non-elec)     =    -341.27972452 hartree
                                             = -214156.25939620 kcal/mol
***********************************************************

 SCF time:  CPU 4.94 s  wall 4.89 s
 SCF   energy in the final basis set = -341.2797245194
 Total energy in the final basis set = -341.2797245194
 
 --------------------------------------------------------------
 
                    Orbital Energies (a.u.)
 --------------------------------------------------------------
 
 Alpha MOs
 -- Occupied --
-19.223 -19.222 -19.144 -10.376 -10.258 -10.257  -1.205  -1.089
 -1.085  -0.801  -0.687  -0.657  -0.563  -0.537  -0.509  -0.483
 -0.442  -0.421  -0.413  -0.398  -0.339  -0.266
 -- Virtual --
 -0.011  -0.004   0.000   0.013   0.024   0.050   0.057   0.063
  0.072   0.089   0.106   0.107   0.115   0.125   0.130   0.133
  0.157   0.172   0.201   0.210   0.232   0.237   0.254   0.261
  0.264   0.268   0.271   0.283   0.296   0.315   0.321   0.353
  0.368   0.381   0.447   0.472   0.510   0.526   0.544   0.558
  0.563   0.664   0.710   0.740   0.765   0.771   0.791   0.796
  0.905   0.917   0.964   1.026   1.038   1.094   1.115   1.130
  1.144   1.151   1.161   1.176   1.228   1.243   1.301   1.329
  1.407   1.479   1.524   1.644   1.668   1.682   1.710   1.712
  1.716   1.737   1.829   1.846   1.916   2.027   2.094   2.130
  2.379   2.486   2.512   2.618   2.662   2.690   2.701   2.738
  2.783   2.838   2.862   2.920   3.015   3.022   3.073   3.077
  3.133   3.179   3.368   3.372   3.374   3.489   3.594   3.661
  3.897   3.954   4.017   4.025   4.147   4.915   4.927   5.006
  5.105   5.229   5.401   5.448   5.810   5.909  23.652  23.778
 24.245  49.782  49.879  50.006
 --------------------------------------------------------------
 
          Ground-State Mulliken Net Atomic Charges

     Atom                 Charge (a.u.)
  ----------------------------------------
      1 O                    -0.128571
      2 C                     0.328570
      3 C                    -0.064346
      4 O                    -0.387904
      5 O                    -0.129044
      6 C                    -0.063203
      7 H                     0.222258
      8 H                     0.222240
  ----------------------------------------
  Sum of atomic charges =    -0.000000

 -----------------------------------------------------------------
                    Cartesian Multipole Moments
 -----------------------------------------------------------------
    Charge (ESU x 10^10)
                -0.0000
    Dipole Moment (Debye)
         X      -5.3123      Y       2.3407      Z       0.0221
       Tot       5.8051
    Quadrupole Moments (Debye-Ang)
        XX     -38.2499     XY       5.8490     YY     -37.3082
        XZ       0.0304     YZ      -0.0282     ZZ     -33.3981
    Octopole Moments (Debye-Ang^2)
       XXX     -67.4858    XXY      37.6192    XYY     -27.1383
       YYY     100.1878    XXZ       0.2521    XYZ      -0.0731
       YYZ       0.1983    XZZ      -9.5753    YZZ      26.8481
       ZZZ       0.3011
    Hexadecapole Moments (Debye-Ang^3)
      XXXX    -362.2483   XXXY     110.3843   XXYY    -125.4323
      XYYY      84.1750   YYYY    -350.9994   XXXZ       0.8424
      XXYZ      -0.3808   XYYZ       0.3242   YYYZ      -0.6692
      XXZZ     -60.9188   XYZZ      19.4725   YYZZ     -58.2357
      XZZZ       0.6254   YZZZ      -0.5092   ZZZZ     -32.0388
 -----------------------------------------------------------------
 Calculating MO derivatives via CPSCF
 CPSCF will be done in 8 segments to save memory.
 Computing fast CPCM-SWIG hessian.
   1         0           3      0.024414    0.012229
   2         0           3      0.004275    0.001991
   3         0           3      0.001849    0.000923
   4         0           3      0.000499    0.000271
   5         0           3      0.000098    0.000053
   6         1           2      0.000020    0.000011
   7         1           2      0.000003    0.000002
   8         3           0      0.000000    0.000000    Roots Converged
 Time for AOints: 1.2 s (CPU) 1.2 s (wall)
 ------------------------------------------------------------------------------
                     AOints        : Timing summary (seconds)
 ------------------------------------------------------------------------------
     job step          cpu (% of tot)      sys (% of tot)     wall (% of tot)
 ------------------------------------------------------------------------------
  cpscf_lag         0.1769E+02 (33.2)   0.5400E-04 (15.2)   0.1770E+02 (33.2)
  iterzp            0.3428E+02 (64.3)   0.3020E-03 (84.8)   0.3428E+02 (64.2)
  make_fx           0.0000E+00 ( 0.0)   0.0000E+00 ( 0.0)   0.0000E+00 ( 0.0)
  AOints            0.1196E+01 ( 2.2)   0.0000E+00 ( 0.0)   0.1193E+01 ( 2.2)
 ------------------------------------------------------------------------------
   Grand Totals     0.5334E+02          0.3560E-03          0.5336E+02
 ------------------------------------------------------------------------------
 Calculating analytic Hessian of the SCF energy
 Polarizability Matrix (a.u.)
            1           2           3
    1 -63.3964140   4.7070817   0.1140686
    2   4.7070817 -54.7939020  -0.0600173
    3   0.1140686  -0.0600173 -31.7059680

 Q-Chem warning in module /project/projectdirs/jcesr/qchem/qc5.x/qc500/compile/cori/qc_src/drvman/find_multipole_der.C, line 180:

 Net Molecular Charges From Derivative of Dipole Moment are Inconsistent

 Derivative of Dipole Moment Matrix (a.u.)
            1           2           3
    1  -1.0821591  -0.1108072   0.0027557
    2   0.7219518  -1.0074073  -0.0039783
    3   0.0044408  -0.0013625  -0.1641924
    4   2.9950932  -0.7329604  -0.0096057
    5  -0.7331112   1.6558757   0.0045575
    6  -0.0096339   0.0046587   0.5511396
    7   0.8156421   0.1480969  -0.0027242
    8   0.0555806   0.0671909   0.0001686
    9  -0.0029056  -0.0000830  -0.1085447
   10  -1.8675057   0.5841740   0.0057476
   11   0.5846670  -0.7993790  -0.0025619
   12   0.0057842  -0.0025712  -0.4782274
   13  -1.3459197   0.4815915   0.0048203
   14  -0.3512891  -0.7431038   0.0000489
   15   0.0033175  -0.0026793  -0.1619797
   16   0.3054678  -0.4095431  -0.0020586
   17  -0.3163995   0.5760956   0.0023183
   18  -0.0020609   0.0025667  -0.1088583
   19   0.0885126   0.0088831   0.0005014
   20   0.0285409   0.1271208  -0.0003093
   21   0.0005326  -0.0002526   0.2351394
   22   0.0907593   0.0305437   0.0005369
   23   0.0100749   0.1237128  -0.0002345
   24   0.0005270  -0.0002763   0.2354660
 -----------------------------------------
 Net:  -0.00009   0.00008  -0.00007
 -----------------------------------------

 
 Direct stationary perturbation theory relativistic correction:
 
 rels  =       0.116765216362
 relv  =      -0.518701322119
 rel2e =       0.206131529778
 E_rel =      -0.195804575979
 
 Computing fast CPCM-SWIG hessian.
 Hessian of the SCF Energy
            1           2           3           4           5           6
    1   0.4613748   0.0071101  -0.0012787  -0.1137972  -0.0036683   0.0001330
    2   0.0071101   0.3855266   0.0006059  -0.0292339  -0.1531201  -0.0000687
    3  -0.0012787   0.0006059   0.0670771   0.0000848  -0.0001625  -0.0713781
    4  -0.1137972  -0.0292339   0.0000848   1.0001256  -0.2816039  -0.0032098
    5  -0.0036683  -0.1531201  -0.0001625  -0.2816039   0.4825507   0.0015230
    6   0.0001330  -0.0000687  -0.0713781  -0.0032098   0.0015230   0.1795805
    7  -0.2372275   0.0110809   0.0006296  -0.0197563   0.0867294   0.0002271
    8  -0.0250880  -0.0987609  -0.0000050   0.0342781  -0.0298295  -0.0001806
    9   0.0005714  -0.0001295  -0.0492643   0.0001317  -0.0003344   0.0072043
   10  -0.0132928   0.0539620   0.0002075  -0.6578223   0.2601561   0.0024942
   11   0.0673964  -0.0466939  -0.0003495   0.2600634  -0.1802474  -0.0011159
   12   0.0002292  -0.0003027   0.0163317   0.0024945  -0.0011180  -0.0516398
   13   0.0053390  -0.0709909  -0.0001152  -0.1190688  -0.0339692   0.0000897
   14  -0.0038187  -0.0634750  -0.0001307  -0.0080842  -0.1479995  -0.0001219
   15   0.0000109   0.0000865   0.0115390   0.0001269  -0.0000329  -0.0704483
   16  -0.0911048  -0.0040702   0.0003513  -0.0855204  -0.0258790   0.0002495
   17  -0.0360883  -0.0275639   0.0000308   0.0262885   0.0360168  -0.0000240
   18   0.0002833  -0.0000755   0.0175460   0.0003656   0.0001304   0.0073053
   19  -0.0149980   0.0333083   0.0001052  -0.0062724  -0.0073167   0.0000057
   20  -0.0017407   0.0063234   0.0000210  -0.0021112   0.0005177   0.0000080
   21   0.0000397  -0.0000940  -0.0018763   0.0000153   0.0000252  -0.0003084
   22   0.0037015  -0.0011584   0.0000179   0.0021098   0.0055492   0.0000026
   23  -0.0040907  -0.0022380  -0.0000103   0.0004047  -0.0078739  -0.0000153
   24   0.0000136  -0.0000202   0.0100292  -0.0000075  -0.0000315  -0.0003127
            7           8           9          10          11          12
    1  -0.2372275  -0.0250880   0.0005714  -0.0132928   0.0673964   0.0002292
    2   0.0110809  -0.0987609  -0.0001295   0.0539620  -0.0466939  -0.0003027
    3   0.0006296  -0.0000050  -0.0492643   0.0002075  -0.0003495   0.0163317
    4  -0.0197563   0.0342781   0.0001317  -0.6578223   0.2600634   0.0024945
    5   0.0867294  -0.0298295  -0.0003344   0.2601561  -0.1802474  -0.0011180
    6   0.0002271  -0.0001806   0.0072043   0.0024942  -0.0011159  -0.0516398
    7   0.5488651  -0.0064487  -0.0013671  -0.0035756  -0.0095802   0.0000040
    8  -0.0064487   1.0011286   0.0016980   0.0019506  -0.0053163  -0.0000238
    9  -0.0013671   0.0016980   0.1281706   0.0000216   0.0000169   0.0019645
   10  -0.0035756   0.0019506   0.0000216   0.7700699  -0.3071043  -0.0030917
   11  -0.0095802  -0.0053163   0.0000169  -0.3071043   0.2066553   0.0014019
   12   0.0000040  -0.0000238   0.0019645  -0.0030917   0.0014019   0.0132183
   13  -0.0365660   0.0457261   0.0002610  -0.0919320  -0.0178925   0.0003275
   14   0.0135591  -0.0822785  -0.0002365  -0.0045423   0.0318310   0.0000451
   15   0.0002057  -0.0003407   0.0175724   0.0003573   0.0000866   0.0162774
   16  -0.1523792  -0.1504700  -0.0000338  -0.0007419   0.0045735   0.0000225
   17  -0.1828414  -0.4562465  -0.0001451  -0.0069392  -0.0081800   0.0000028
   18  -0.0000880  -0.0002338  -0.0729645  -0.0000076  -0.0000322   0.0019603
   19  -0.0993989   0.0984072   0.0004073  -0.0010088   0.0032346   0.0000129
   20   0.1070972  -0.3345464  -0.0009435  -0.0000652   0.0006282  -0.0000004
   21   0.0004225  -0.0009146  -0.0336482   0.0000062  -0.0000110   0.0009464
   22   0.0000643   0.0016478   0.0000057  -0.0016945  -0.0006916   0.0000075
   23  -0.0195973   0.0058645   0.0000757   0.0025819   0.0013203  -0.0000080
   24  -0.0000370   0.0000016   0.0009443   0.0000136   0.0000028   0.0009435
           13          14          15          16          17          18
    1   0.0053390  -0.0038187   0.0000109  -0.0911048  -0.0360883   0.0002833
    2  -0.0709909  -0.0634750   0.0000865  -0.0040702  -0.0275639  -0.0000755
    3  -0.0001152  -0.0001307   0.0115390   0.0003513   0.0000308   0.0175460
    4  -0.1190688  -0.0080842   0.0001269  -0.0855204   0.0262885   0.0003656
    5  -0.0339692  -0.1479995  -0.0000329  -0.0258790   0.0360168   0.0001304
    6   0.0000897  -0.0001219  -0.0704483   0.0002495  -0.0000240   0.0073053
    7  -0.0365660   0.0135591   0.0002057  -0.1523792  -0.1828414  -0.0000880
    8   0.0457261  -0.0822785  -0.0003407  -0.1504700  -0.4562465  -0.0002338
    9   0.0002610  -0.0002365   0.0175724  -0.0000338  -0.0001451  -0.0729645
   10  -0.0919320  -0.0045423   0.0003573  -0.0007419  -0.0069392  -0.0000076
   11  -0.0178925   0.0318310   0.0000866   0.0045735  -0.0081800  -0.0000322
   12   0.0003275   0.0000451   0.0162774   0.0000225   0.0000028   0.0019603
   13   0.4125125  -0.0372412  -0.0011907  -0.1542885   0.0866088   0.0004963
   14  -0.0372412   0.4343244   0.0008249   0.0502608  -0.1811710  -0.0004164
   15  -0.0011907   0.0008249   0.0664023   0.0004322  -0.0005354  -0.0495541
   16  -0.1542885   0.0502608   0.0004322   0.8015610   0.2252072  -0.0017846
   17   0.0866088  -0.1811710  -0.0005354   0.2252072   0.7475518   0.0004438
   18   0.0004963  -0.0004164  -0.0495541  -0.0017846   0.0004438   0.1285704
   19   0.0031029  -0.0046439   0.0000134   0.0121114  -0.0085627  -0.0000529
   20  -0.0017562  -0.0015966  -0.0000162   0.0126842  -0.0062189  -0.0000554
   21   0.0000200  -0.0000074   0.0100246  -0.0000112   0.0000145   0.0009121
   22  -0.0190955  -0.0054906   0.0000459  -0.3296609  -0.1036801   0.0007861
   23   0.0295033   0.0103669  -0.0000746  -0.1122967  -0.1042053   0.0002396
   24   0.0001118   0.0000401  -0.0018215   0.0007719   0.0002140  -0.0337501
           19          20          21          22          23          24
    1  -0.0149980  -0.0017407   0.0000397   0.0037015  -0.0040907   0.0000136
    2   0.0333083   0.0063234  -0.0000940  -0.0011584  -0.0022380  -0.0000202
    3   0.0001052   0.0000210  -0.0018763   0.0000179  -0.0000103   0.0100292
    4  -0.0062724  -0.0021112   0.0000153   0.0021098   0.0004047  -0.0000075
    5  -0.0073167   0.0005177   0.0000252   0.0055492  -0.0078739  -0.0000315
    6   0.0000057   0.0000080  -0.0003084   0.0000026  -0.0000153  -0.0003127
    7  -0.0993989   0.1070972   0.0004225   0.0000643  -0.0195973  -0.0000370
    8   0.0984072  -0.3345464  -0.0009146   0.0016478   0.0058645   0.0000016
    9   0.0004073  -0.0009435  -0.0336482   0.0000057   0.0000757   0.0009443
   10  -0.0010088  -0.0000652   0.0000062  -0.0016945   0.0025819   0.0000136
   11   0.0032346   0.0006282  -0.0000110  -0.0006916   0.0013203   0.0000028
   12   0.0000129  -0.0000004   0.0009464   0.0000075  -0.0000080   0.0009435
   13   0.0031029  -0.0017562   0.0000200  -0.0190955   0.0295033   0.0001118
   14  -0.0046439  -0.0015966  -0.0000074  -0.0054906   0.0103669   0.0000401
   15   0.0000134  -0.0000162   0.0100246   0.0000459  -0.0000746  -0.0018215
   16   0.0121114   0.0126842  -0.0000112  -0.3296609  -0.1122967   0.0007719
   17  -0.0085627  -0.0062189   0.0000145  -0.1036801  -0.1042053   0.0002140
   18  -0.0000529  -0.0000554   0.0009121   0.0007861   0.0002396  -0.0337501
   19   0.1067493  -0.1145446  -0.0004841  -0.0002871   0.0001149  -0.0000076
   20  -0.1145446   0.3346802   0.0009821   0.0004336   0.0002105   0.0000037
   21  -0.0004841   0.0009821   0.0266217  -0.0000072   0.0000051  -0.0026749
   22  -0.0002871   0.0004336  -0.0000072   0.3448626   0.1033829  -0.0008582
   23   0.0001149   0.0002105   0.0000051   0.1033829   0.0965461  -0.0002119
   24  -0.0000076   0.0000037  -0.0026749  -0.0008582  -0.0002119   0.0266392
 Gradient time:  CPU 66.12 s  wall 66.29 s
 **********************************************************************
 **                                                                  **
 **                       VIBRATIONAL ANALYSIS                       **
 **                       --------------------                       **
 **                                                                  **
 **        VIBRATIONAL FREQUENCIES (CM**-1) AND NORMAL MODES         **
 **     FORCE CONSTANTS (mDYN/ANGSTROM) AND REDUCED MASSES (AMU)     **
 **                  INFRARED INTENSITIES (KM/MOL)                   **
 **                                                                  **
 **********************************************************************
 

 Mode:                 1                      2                      3
 Frequency:       237.24                 516.76                 572.75
 Force Cnst:      0.2309                 1.4238                 0.8000
 Red. Mass:       6.9643                 9.0494                 4.1392
 IR Active:          YES                    YES                    YES
 IR Intens:        0.626                  0.018                  0.002
 Raman Active:       YES                    YES                    YES
               X      Y      Z        X      Y      Z        X      Y      Z
 O         -0.001  0.001 -0.315    0.043 -0.300 -0.001   -0.001  0.000 -0.187
 C         -0.000  0.000 -0.143   -0.098 -0.223 -0.000    0.000 -0.000 -0.002
 C          0.001 -0.000  0.224    0.191  0.027 -0.001    0.001 -0.001  0.308
 O          0.001 -0.001  0.334    0.204  0.462  0.000    0.000  0.000  0.000
 O         -0.001  0.001 -0.314   -0.250 -0.170  0.000    0.001 -0.000  0.187
 C          0.001 -0.000  0.223   -0.109  0.159  0.001   -0.001  0.001 -0.307
 H          0.002 -0.001  0.533    0.444  0.132 -0.001    0.002 -0.001  0.604
 H          0.002 -0.001  0.535   -0.201  0.416  0.002   -0.002  0.001 -0.613
 TransDip   0.000 -0.000  0.025   -0.001 -0.004  0.000    0.000  0.000 -0.002

 Mode:                 4                      5                      6
 Frequency:       714.83                 746.03                 776.60
 Force Cnst:      0.4693                 3.9783                 1.3542
 Red. Mass:       1.5590                12.1320                 3.8110
 IR Active:          YES                    YES                    YES
 IR Intens:      138.547                  8.214                  0.017
 Raman Active:       YES                    YES                    YES
               X      Y      Z        X      Y      Z        X      Y      Z
 O         -0.000  0.000 -0.026   -0.248 -0.226  0.000   -0.001  0.000 -0.138
 C          0.001 -0.000  0.178    0.331 -0.147 -0.001    0.001 -0.001  0.409
 C         -0.000  0.000 -0.082   -0.310  0.124  0.001    0.000 -0.000  0.102
 O         -0.000  0.000 -0.045    0.464 -0.205 -0.002   -0.000  0.000 -0.106
 O         -0.000 -0.000 -0.025    0.002  0.335  0.001   -0.000  0.000 -0.138
 C         -0.000  0.000 -0.084   -0.300  0.147  0.001    0.000 -0.000  0.101
 H          0.002 -0.001  0.691    0.049  0.282  0.002   -0.002  0.001 -0.619
 H          0.002 -0.001  0.688   -0.175 -0.225  0.002   -0.002  0.001 -0.616
 TransDip   0.001 -0.001  0.377   -0.084  0.037  0.001   -0.000  0.000  0.004

 Mode:                 7                      8                      9
 Frequency:       838.55                 885.30                 889.39
 Force Cnst:      0.5444                 3.1133                 4.2290
 Red. Mass:       1.3142                 6.7420                 9.0739
 IR Active:          YES                    YES                    YES
 IR Intens:        0.000                 65.784                  3.464
 Raman Active:       YES                    YES                    YES
               X      Y      Z        X      Y      Z        X      Y      Z
 O         -0.000  0.000  0.003    0.062  0.378  0.001    0.320 -0.052 -0.001
 C         -0.000  0.000 -0.000    0.177 -0.074 -0.001    0.163  0.375  0.000
 C          0.000 -0.000  0.118   -0.073  0.028  0.000    0.051 -0.371 -0.001
 O         -0.000 -0.000  0.000    0.210 -0.092 -0.001    0.005  0.017 -0.000
 O          0.000 -0.000 -0.002   -0.243 -0.296  0.000   -0.247  0.210  0.001
 C         -0.000  0.000 -0.118   -0.076  0.031  0.000   -0.307 -0.213  0.001
 H         -0.002  0.001 -0.697   -0.529 -0.151  0.001    0.286 -0.303 -0.002
 H          0.002 -0.001  0.698   -0.252  0.488  0.002   -0.411 -0.007  0.001
 TransDip   0.000  0.000  0.000    0.238 -0.105 -0.001    0.020  0.056  0.000

 Mode:                10                     11                     12
 Frequency:      1009.67                1092.25                1110.50
 Force Cnst:      5.5857                 1.8436                 2.1058
 Red. Mass:       9.2998                 2.6229                 2.8982
 IR Active:          YES                    YES                    YES
 IR Intens:       75.874                161.571                 72.270
 Raman Active:       YES                    YES                    YES
               X      Y      Z        X      Y      Z        X      Y      Z
 O          0.015 -0.288 -0.001    0.164  0.004 -0.001   -0.177 -0.011  0.001
 C          0.187  0.424  0.000   -0.073 -0.167 -0.000    0.025 -0.007 -0.000
 C         -0.301  0.253  0.001   -0.119  0.045  0.000    0.151 -0.146 -0.001
 O         -0.016 -0.038 -0.000    0.022  0.048  0.000    0.030 -0.014 -0.000
 O         -0.224 -0.184  0.000   -0.110  0.129  0.001   -0.108  0.133  0.001
 C          0.389 -0.052 -0.001    0.120 -0.058 -0.001    0.206 -0.010 -0.001
 H          0.019  0.394  0.001   -0.649 -0.171  0.002   -0.476 -0.432  0.001
 H          0.280  0.271 -0.000    0.311 -0.572 -0.002   -0.013  0.661  0.001
 TransDip   0.112  0.255  0.000   -0.160 -0.374 -0.000    0.252 -0.103 -0.001

 Mode:                13                     14                     15
 Frequency:      1177.79                1351.67                1662.97
 Force Cnst:      1.3704                 1.9148                 8.8684
 Red. Mass:       1.6767                 1.7788                 5.4428
 IR Active:          YES                    YES                    YES
 IR Intens:      194.880                 45.954                  2.805
 Raman Active:       YES                    YES                    YES
               X      Y      Z        X      Y      Z        X      Y      Z
 O         -0.094  0.079  0.000    0.041  0.052 -0.000    0.027  0.031 -0.000
 C          0.020 -0.010 -0.000   -0.048 -0.108 -0.000    0.016 -0.007 -0.000
 C          0.096  0.006 -0.000   -0.145 -0.027  0.000   -0.230 -0.382  0.000
 O          0.026 -0.011 -0.000    0.008  0.018  0.000   -0.020  0.009  0.000
 O         -0.121  0.017  0.000    0.011  0.066  0.000   -0.004 -0.040 -0.000
 C          0.060 -0.075 -0.000    0.078 -0.125 -0.000    0.127  0.428  0.000
 H          0.650  0.232 -0.002    0.614  0.292 -0.001    0.517 -0.177 -0.002
 H          0.266 -0.634 -0.002   -0.202  0.656  0.002    0.480 -0.262 -0.002
 TransDip   0.409 -0.181 -0.002   -0.088 -0.198 -0.000   -0.049  0.022  0.000

 Mode:                16                     17                     18
 Frequency:      1888.62                3293.05                3316.36
 Force Cnst:     27.2827                 6.9726                 7.2321
 Red. Mass:      12.9821                 1.0913                 1.1161
 IR Active:          YES                    YES                    YES
 IR Intens:     1160.508                 21.922                  2.609
 Raman Active:       YES                    YES                    YES
               X      Y      Z        X      Y      Z        X      Y      Z
 O         -0.035 -0.006  0.000    0.001 -0.000 -0.000   -0.001  0.000  0.000
 C          0.773 -0.339 -0.003    0.001  0.002  0.000   -0.002  0.001  0.000
 C         -0.016  0.037  0.000    0.024 -0.056 -0.000    0.020 -0.068 -0.000
 O         -0.477  0.210  0.002   -0.000 -0.000  0.000    0.000 -0.000 -0.000
 O         -0.019  0.029  0.000   -0.001  0.001  0.000   -0.001  0.001  0.000
 C         -0.038 -0.013  0.000   -0.059 -0.021  0.000    0.062  0.031 -0.000
 H         -0.053  0.048  0.000   -0.267  0.643  0.002   -0.267  0.660  0.002
 H         -0.072  0.007  0.000    0.670  0.243 -0.002   -0.652 -0.243  0.002
 TransDip   0.999 -0.440 -0.004    0.061  0.137  0.000   -0.046  0.023  0.000

 STANDARD THERMODYNAMIC QUANTITIES AT   298.15 K  AND     1.00 ATM

   This Molecule has  0 Imaginary Frequencies
   Zero point vibrational energy:       31.565 kcal/mol

   Atom    1 Element O  Has Mass   15.99491
   Atom    2 Element C  Has Mass   12.00000
   Atom    3 Element C  Has Mass   12.00000
   Atom    4 Element O  Has Mass   15.99491
   Atom    5 Element O  Has Mass   15.99491
   Atom    6 Element C  Has Mass   12.00000
   Atom    7 Element H  Has Mass    1.00783
   Atom    8 Element H  Has Mass    1.00783
   Molecular Mass:    86.000390 amu
   Principal axes and moments of inertia in amu*Bohr^2:
                             1           2           3
    Eigenvalues --      192.11996   432.60736   624.72732
          X               0.91503     0.40337     0.00331
          Y              -0.40337     0.91503    -0.00193
          Z              -0.00381     0.00043     0.99999
   Rotational Symmetry Number is   1
   The Molecule is an Asymmetric Top
   Translational Enthalpy:        0.889 kcal/mol
   Rotational Enthalpy:           0.889 kcal/mol
   Vibrational Enthalpy:         32.492 kcal/mol
   gas constant (RT):             0.592 kcal/mol
   Translational Entropy:        39.268  cal/mol.K
   Rotational Entropy:           25.454  cal/mol.K
   Vibrational Entropy:           4.473  cal/mol.K

   Total Enthalpy:               34.862 kcal/mol
   Total Entropy:                69.196  cal/mol.K
Archival summary:
1\1\nid01365\FREQ\ProcedureUnspecified\BasisUnspecified\332\jself\MonJan2917:06:062018MonJan2917:06:062018\0\\#,FREQ,ProcedureUnspecified,BasisUnspecified,\\0,1\O\C,1,1.37182\O,2,1.18615,1,126.19\O,2,1.37194,1,107.63,3,180,0\C,1,1.38276,2,107.498,3,-179.992,0\H,5,1.07495,1,117.601,2,179.999,0\C,5,1.32845,1,108.692,2,-0.00473367,0\H,7,1.07492,5,133.688,1,-179.997,0\\\@

 Total job time:  71.73s(wall), 71.19s(cpu) 
 Mon Jan 29 17:06:06 2018

        *************************************************************
        *                                                           *
        *  Thank you very much for using Q-Chem.  Have a nice day.  *
        *                                                           *
        *************************************************************


0 sent ACK to 0 
now end server 0 ... 
 
*************************************************************
