          14
 energy: -13.665794866101 gnorm: 0.000074439920 xtb: 6.2.2 (655bc02)   !mtd6
C           1.93877800412245   -0.13366629488263   -0.00183181435869
C           0.56101649505472    0.51787697791173    0.00136175417302
C          -0.56111060275742   -0.51797329757084    0.00183511109462
C          -1.93884073769215    0.13368634579863   -0.00173776916526
H          -2.72065656858678   -0.62223096317046    0.00340117732507
H          -2.06449132319623    0.76397982671512    0.87609396078792
H          -2.06528951083197    0.75283049438145   -0.88734614710510
H          -0.45988648892992   -1.15746348770371   -0.87831177345998
H          -0.46271847996699   -1.15375511974517    0.88497875219321
H           0.46272832539382    1.15416440269637    0.88413967050774
H           0.45970869708144    1.15684198602630   -0.87917202154938
H           2.06601111130835   -0.76029624210130    0.87839658019880
H           2.72056727631614    0.62230449209029   -0.00121684502193
H           2.06368365268455   -0.75649047044577   -0.88509263562003
          14
 energy: -13.665795203808 gnorm: 0.000110932008 xtb: 6.2.2 (655bc02)   !input
C          -1.93857125809417    0.13358527274924    0.00004922459075
C          -0.56092921002611   -0.51810696666754    0.00003187775881
C           0.56092921756672    0.51810691716918   -0.00003187349865
C           1.93857128423008   -0.13358525147143   -0.00004922716880
H           2.72028914204660    0.62245620241575   -0.00050440972233
H           2.06471208782519   -0.75791125837319    0.88197184865814
H           2.06438041361310   -0.75866677484591   -0.88159248326957
H           0.46126451737688    1.15571544774398   -0.88172275958097
H           0.46127534009955    1.15578004625057    0.88161636521014
H          -0.46126448580014   -1.15571549696678    0.88172276585882
H          -0.46127532223161   -1.15578009767467   -0.88161636131164
H          -2.72028912035236   -0.62245616152450    0.00050507435594
H          -2.06471235461604    0.75791077305577   -0.88197216882242
H          -2.06438016163770    0.75866729813951    0.88159215694177
          14
 energy: -13.665795160612 gnorm: 0.000107628564 xtb: 6.2.2 (655bc02)   !mtd10
C           1.93884710383237    0.13361097071985    0.00016073482205
C           0.56106812867675   -0.51789777992486   -0.00001060241688
C          -0.56108378218610    0.51799078784014    0.00005586623248
C          -1.93889240798968   -0.13355314702139    0.00003894081124
H          -2.06456528342542   -0.75893132744022   -0.88129630851878
H          -2.06530494852760   -0.75766199403155    0.88217228567140
H          -2.72073161853632    0.62238668107043   -0.00083755544417
H          -0.46129636670798    1.15555176195373    0.88179195213607
H          -0.46128119789806    1.15561265018467   -0.88162342363332
H           0.46133419026179   -1.15529683175788   -0.88186907438942
H           0.46134474875822   -1.15563765123932    0.88162450442284
H           2.06381208006855    0.76042816412848   -0.88023723034657
H           2.72067746877341   -0.62228444817189   -0.00259026567891
H           2.06597389490006    0.75618983368981    0.88325943633197
          14
 energy: -13.665795018618 gnorm: 0.000160706886 xtb: 6.2.2 (655bc02)   !mtd14
C           1.93900484406642   -0.13360628269827    0.00134713748644
C           0.56113003336865    0.51782095171152   -0.00146467652622
C          -0.56116368328939   -0.51785330346548   -0.00126380246930
C          -1.93902138344654    0.13359489860249    0.00142916412368
H          -2.06386669701066    0.75694182481278    0.88430744633450
H          -2.06624980773709    0.75972618215948   -0.87914426511306
H          -2.72087221517385   -0.62233094233700    0.00127899948685
H          -0.46261103022897   -1.15425693166148   -0.88392460924788
H          -0.46003610605391   -1.15669487284317    0.87936687613953
H           0.46007543593429    1.15686549472376    0.87900470967413
H           0.46247690330121    1.15405564512085   -0.88422883618658
H           2.06573374871343   -0.76095955345655   -0.87844852850213
H           2.06439159302876   -0.75569654977584    0.88504095593690
H           2.72083639452765    0.62233355910692   -0.00029839113685
          14
 energy: -13.665795149123 gnorm: 0.000135370796 xtb: 6.2.2 (655bc02)   !mtd12
C           1.93895971106298   -0.13370161934670   -0.00073106829079
C           0.56111015022594    0.51779002639915    0.00076005855734
C          -0.56115198952556   -0.51787192990311    0.00070938566247
C          -1.93897335522769    0.13364378611270   -0.00080745794948
H          -2.06532245666662    0.75965152302636    0.87996541979921
H          -2.06478283196237    0.75709684707394   -0.88348673748391
H          -2.72078818236898   -0.62229576841865    0.00007353131213
H          -0.46066762791747   -1.15611085129304   -0.88041469076860
H          -0.46193497982791   -1.15488897562869    0.88286773144100
H           0.46184629084877    1.15473952814999    0.88295273111193
H           0.46070821837317    1.15609214605564   -0.88032315898126
H           2.72074905627077    0.62226473569175    0.00108613923345
H           2.06510734170295   -0.75638809948323   -0.88389536836770
H           2.06493404501201   -0.76046361843610    0.87957117472421
          14
 energy: -13.665795038186 gnorm: 0.000082795461 xtb: 6.2.2 (655bc02)   !mtd1
C           1.93869802102236   -0.13371138101555    0.00051772708350
C           0.56098013548428    0.51797998262505    0.00011017928990
C          -0.56100073840132   -0.51800979233107   -0.00036185073759
C          -1.93869376790732    0.13374411920642    0.00023305515243
H          -2.06346205167498    0.76165884560916   -0.87942732442764
H          -2.72049544174285   -0.62217408714027   -0.00370957017625
H          -2.06608406925521    0.75524308660501    0.88407906328795
H          -0.46115005339309   -1.15510110649330   -0.88239374051153
H          -0.46113275795753   -1.15617579486495    0.88090464307278
H           0.46089306502483    1.15543196403459    0.88185159736807
H           0.46141081313839    1.15577139547047   -0.88146007291738
H           2.06610290110526   -0.75570154263838   -0.88294586019867
H           2.06338112678220   -0.76116776594828    0.88054264558206
H           2.72049011777498    0.62224374688109    0.00405497813235
          14
 energy: -13.665795150741 gnorm: 0.000064678556 xtb: 6.2.2 (655bc02)   !mtd1
C           1.93870493358020   -0.13370058801033    0.00066171431077
C           0.56101720982616    0.51799401269933   -0.00064966349838
C          -0.56098924248943   -0.51800158004663   -0.00058467206828
C          -1.93869166809818    0.13369753366237    0.00058468338555
H          -2.72048233677013   -0.62223445162304   -0.00219440962039
H          -2.06523221867515    0.75565244581787    0.88419562556304
H          -2.06432732758792    0.76117739654027   -0.87926403281247
H          -0.46177070901001   -1.15499206763366   -0.88275800094279
H          -0.46063179344767   -1.15630169210530    0.88054017359367
H           0.46062462768048    1.15623408673855    0.88049821768769
H           0.46185269743445    1.15503069115053   -0.88281413229682
H           2.06480846624209   -0.76016917124660   -0.87983814946485
H           2.06474634366539   -0.75664795776391    0.88365321304398
H           2.72047741764973    0.62225080182055   -0.00081456688072
          14
 energy: -13.665794976595 gnorm: 0.000092343048 xtb: 6.2.2 (655bc02)   !mtd9
C          -1.93877032590575    0.13368098710411   -0.00203996365317
C          -0.56102975101764   -0.51795432686763    0.00183228279306
C           0.56104996722012    0.51794578251684    0.00164963803407
C           1.93877722053584   -0.13368253623702   -0.00189534072672
H           2.06335879647763   -0.75679441426956   -0.88499111484693
H           2.72056334523479    0.62227218032066   -0.00180372750142
H           2.06629521072820   -0.76000266659800    0.87848808172222
H           0.45974099860706    1.15713470238456   -0.87871898742110
H           0.46275155665626    1.15398749737766    0.88460725857425
H          -0.46275413924542   -1.15394557637351    0.88485613543665
H          -0.45967949018993   -1.15720717794092   -0.87845844258641
H          -2.72055873906977   -0.62228520429456   -0.00296351204846
H          -2.06293357947211    0.75757847159215   -0.88467535751660
H          -2.06670523055927    0.75921202128524    0.87884197974058
          14
 energy: -13.665794803872 gnorm: 0.000092732814 xtb: 6.2.2 (655bc02)   !mtd11
C           1.93883683635171    0.13370006357614   -0.00240399767202
C           0.56105689034327   -0.51785493830457    0.00214338266013
C          -0.56107620691924    0.51798682176121    0.00216339657419
C          -1.93879659808999   -0.13372023833293   -0.00248483106839
H          -2.06720531103643   -0.76000605129986    0.87781510861758
H          -2.72058095613814    0.62224878435456   -0.00320171128116
H          -2.06252274977738   -0.75688763599038   -0.88567372971263
H          -0.46331182636652    1.15345491666321    0.88559312855416
H          -0.45920195630480    1.15777838893261   -0.87769755067571
H           0.45920292785617   -1.15767363502335   -0.87770302881454
H           0.46331079059213   -1.15329858856393    0.88557576243567
H           2.06281933768490    0.75622307563084   -0.88600003548377
H           2.72062631765957   -0.62228456140998   -0.00231855115873
H           2.06689882414475    0.76063123800643    0.87749272702524
          14
 energy: -13.664790592095 gnorm: 0.000053964875 xtb: 6.2.2 (655bc02)   !mtd5
C          -1.56672914119622   -0.56313364179200    0.13386443100289
C          -0.69387073678714    0.60124400535821   -0.32113088456499
C           0.69399141445393    0.60105409366841    0.32149750300600
C           1.56668092198727   -0.56317233482104   -0.13409481457967
H           2.56289161982195   -0.47776468241158    0.29414974658219
H           1.14429280289623   -1.51386683359270    0.18003001690569
H           1.65862270825440   -0.56745648132065   -1.21824125837820
H           1.19577293896794    1.53789007571517    0.06670956628383
H           0.58606912154529    0.56986592516485    1.40826204272453
H          -0.58596439083435    0.57051027945196   -1.40789809779816
H          -1.19553869290528    1.53802158007410   -0.06591301446265
H          -1.65484337883063   -0.57056401722335    1.21831116966609
H          -1.14691525567572   -1.51352881909824   -0.18465232951300
H          -2.56433144169767   -0.47492674917314   -0.29056807687455
          14
 energy: -13.664790572842 gnorm: 0.000143928794 xtb: 6.2.2 (655bc02)   !mtd10
C           1.56568713000000    0.56381514000000    0.13385316000000
C           0.69420976000000   -0.60180349000000   -0.32040939000000
C          -0.69458213000000   -0.60201289000000    0.32032522000000
C          -1.56534015000000    0.56418144000000   -0.13375821000000
H          -1.14421085000000    1.51360327000000    0.18602206000000
H          -1.65309801000000    0.57295001000000   -1.21823180000000
H          -2.56321087000000    0.47688115000000    0.29029161000000
H          -1.19679439000000   -1.53778820000000    0.06240365000000
H          -0.58832699000000   -0.57341129000000    1.40734230000000
H           0.58787316000000   -0.57281852000000   -1.40741448000000
H           1.19616171000000   -1.53788211000000   -0.06300696000000
H           2.56315540000000    0.47701926000000   -0.29121177000000
H           1.65453076000000    0.57150448000000    1.21823565000000
H           1.14422266000000    1.51347555000000   -0.18455862000000
          14
 energy: -13.664790616769 gnorm: 0.000089068884 xtb: 6.2.2 (655bc02)   !mtd9
C          -1.56594318742685   -0.56349409334603   -0.13426299596587
C          -0.69424344193662    0.60160015040042    0.32098816831721
C           0.69425917743024    0.60153330395745   -0.32022530576935
C           1.56589041127111   -0.56411258986798    0.13383576392758
H           1.14569902504459   -1.51380454271712   -0.18623799681072
H           2.56383514273154   -0.47603681069915   -0.28978238089540
H           1.65330101075402   -0.57306238879290    1.21831626672982
H           0.58750322482197    0.57273142579409   -1.40717909431584
H           1.19616080708173    1.53761010303352   -0.06289066162415
H          -1.19604210132747    1.53790244637909    0.06425874690242
H          -0.58754991174616    0.57200178116429    1.40794696010546
H          -1.14430525987776   -1.51358920715101    0.18269235143891
H          -1.65571826023203   -0.56995248102190   -1.21859310549221
H          -2.56300542658829   -0.47710374713276    0.29177645345215
          14
 energy: -13.664790363452 gnorm: 0.000174465518 xtb: 6.2.2 (655bc02)   !mtd12
C           1.56740557301351   -0.56287056838351   -0.13361239451897
C           0.69366286610351    0.60056472402305    0.32197662550641
C          -0.69370943689807    0.60076026024650   -0.32187590240886
C          -1.56744344430887   -0.56269940421188    0.13354281499507
H          -2.56221759175422   -0.47879597863483   -0.29810301742051
H          -1.14389015265414   -1.51419453863457   -0.17655557170104
H          -1.66307546045205   -0.56389644445205    1.21731065467530
H          -1.19526521300096    1.53803893674405   -0.06833382828507
H          -0.58517118733331    0.56859840995390   -1.40849328376558
H           0.58510527257361    0.56864991055353    1.40864144887571
H           1.19526555311318    1.53774861702745    0.06819668329720
H           2.56371933356837   -0.47643267655449    0.29411670384013
H           1.65889204790488   -0.56712361864442   -1.21775305623998
H           1.14633536012454   -1.51408073903275    0.18065699315017
          14
 energy: -13.664790315571 gnorm: 0.000087828747 xtb: 6.2.2 (655bc02)   !mtd9
C           1.56622284750701   -0.56370623800155   -0.13388462271970
C           0.69422972905233    0.60156968792609    0.32043324281696
C          -0.69424510984145    0.60119331110702   -0.32091465340530
C          -1.56625083850571   -0.56378064535582    0.13399925030901
H          -1.66013013521369   -0.56720576681009    1.21796228428805
H          -2.56183593603709   -0.48001693450956   -0.29607480311666
H          -1.14204404807252   -1.51420544491197   -0.17851157568509
H          -1.19610236830052    1.53754796786962   -0.06443227204950
H          -0.58728683774342    0.57140860319498   -1.40783194987667
H           0.58726572955390    0.57249157393550    1.40735440277246
H           1.19596752410424    1.53783682298670    0.06337184973224
H           2.56433692640077   -0.47488372277305    0.28917828992216
H           1.65306417732929   -0.57283020377299   -1.21841247134764
H           1.14687029976684   -1.51364089088488    0.18660894835967
          14
 energy: -13.664790139505 gnorm: 0.000082785824 xtb: 6.2.2 (655bc02)   !mtd1
C           1.56422522000000   -0.56486086000000    0.13360922000000
C           0.69485157000000    0.60282841000000   -0.31944522000000
C          -0.69473359000000    0.60270057000000    0.31948256000000
C          -1.56435309000000   -0.56472015000000   -0.13367161000000
H          -2.56214129000000   -0.47851549000000    0.29073617000000
H          -1.65240299000000   -0.57443382000000   -1.21810704000000
H          -1.14185306000000   -1.51326445000000    0.18669700000000
H          -0.58978020000000    0.57588751000000    1.40667871000000
H          -1.19713104000000    1.53780918000000    0.05952518000000
H           1.19726485000000    1.53787212000000   -0.05912590000000
H           0.59004656000000    0.57637699000000   -1.40667506000000
H           1.14397647000000   -1.51314814000000   -0.19056213000000
H           1.64878717000000   -0.57716585000000    1.21826790000000
H           2.56335134000000   -0.47647911000000   -0.28713632000000
          14
 energy: -13.664789664278 gnorm: 0.000063894843 xtb: 6.2.2 (655bc02)   !mtd8
C          -1.56900649152579   -0.56150226726738    0.13370867986491
C          -0.69282813074539    0.59949435728992   -0.32346470301541
C           0.69291229916732    0.59942469304748    0.32379796139696
C           1.56902825917070   -0.56132669316037   -0.13398999627269
H           1.14440421436893   -1.51444875792838    0.16964377873332
H           1.66896633587137   -0.55740454468638   -1.21742311144524
H           2.56204771102714   -0.47918429543810    0.30221566272675
H           1.19396622138771    1.53819107258428    0.07472566598234
H           0.58144520056259    0.56330205140337    1.41004528618741
H          -0.58135622094566    0.56393083315382   -1.40972107809001
H          -1.19390140280674    1.53811424138505   -0.07391500214338
H          -1.14647245574283   -1.51433021084143   -0.17382489408800
H          -2.56323383625905   -0.47695675815388   -0.29930306193334
H          -1.66570024353030   -0.56038375138800    1.21745513209638
          14
 energy: -13.664790430953 gnorm: 0.000057055905 xtb: 6.2.2 (655bc02)   !mtd6
C           1.56652388085769   -0.56348039738292    0.13374826788380
C           0.69393255104250    0.60125416344638   -0.32082267807847
C          -0.69394557725093    0.60099673869667    0.32175840845102
C          -1.56657607764422   -0.56312485247599   -0.13412932131560
H          -2.56199684627813   -0.47916674271478    0.29622953486087
H          -1.66067841635021   -0.56558037929247   -1.21808721219682
H          -1.14282417116651   -1.51403838623800    0.17750035604260
H          -0.58625786078806    0.56980597072631    1.40857556727895
H          -1.19562678799917    1.53784487373859    0.06680602337080
H           1.19566208544409    1.53784803142004   -0.06498202434422
H           0.58615101098187    0.57118057474679   -1.40763700595701
H           1.65417819343799   -0.57174219306642    1.21823291381883
H           2.56429997373889   -0.47483360418895   -0.29016524636731
H           1.14701586197419   -1.51371424741524   -0.18568314344745
          14
 energy: -13.664790088166 gnorm: 0.000103993366 xtb: 6.2.2 (655bc02)   !mtd5
C          -1.56556607688950   -0.56405569482892    0.13375001777515
C          -0.69433353404918    0.60212366553907   -0.31978611328878
C           0.69455680689491    0.60185459156331    0.32066145974289
C           1.56547471244668   -0.56396711729412   -0.13423984302234
H           2.56219738178179   -0.47901076731920    0.29302580039525
H           1.14216663631879   -1.51371725665943    0.18164017965479
H           1.65640090267606   -0.56978900605742   -1.21850278733272
H           1.19673371308671    1.53780815711405    0.06334944103411
H           0.58834458358130    0.57278381300302    1.40767337668312
H          -0.58817012645221    0.57412409265568   -1.40680471250694
H          -1.19632833250355    1.53789892517034   -0.06152886729609
H          -1.14819572692808   -1.51303606366492   -0.19212469419257
H          -2.56539001075626   -0.47301654603320   -0.28481672965341
H          -1.64785098920746   -0.57712271318826    1.21862491200754
          14
 energy: -13.664790437206 gnorm: 0.000157483046 xtb: 6.2.2 (655bc02)   !mtd6
C          -1.56657299632326    0.56367491779299   -0.13395981517027
C          -0.69415461913513   -0.60107949125344    0.32078634099890
C           0.69415233796806   -0.60115301028080   -0.32087635394344
C           1.56674101403853    0.56338386599906    0.13409948560364
H           1.14472636734168    1.51384093622168   -0.18147735305341
H           1.65797652362379    0.56870336471290    1.21837489952023
H           2.56319934033582    0.47709982223516   -0.29354178447491
H           1.19573538389081   -1.53767418748185   -0.06455813430313
H           0.58696300947372   -0.57136351780487   -1.40775433293854
H          -0.58689572722245   -0.57125703588384    1.40765600934539
H          -1.19580329279115   -1.53760976870775    0.06452446248304
H          -1.65961790770386    0.56803434160568   -1.21793396516726
H          -1.14366856966303    1.51424981586918    0.17961854134975
H          -2.56242296383354    0.47892326697591    0.29508032975001
          14
 energy: -13.664789308261 gnorm: 0.000077388545 xtb: 6.2.2 (655bc02)   !mtd1
C          -1.56939741211171    0.56096250607141    0.13390775202879
C          -0.69262599376733   -0.59917983569310   -0.32423582562425
C           0.69260478028961   -0.59910476873862    0.32412733310748
C           1.56940907610809    0.56108979788098   -0.13380403807778
H           2.56232787027512    0.47852846652486    0.30256391980639
H           1.66951067480153    0.55683578134382   -1.21722193466751
H           1.14524669165196    1.51453995340741    0.16949547011083
H           0.58033330698520   -0.56220930422418    1.41026759146253
H           1.19353818764540   -1.53818379563317    0.07600938555786
H          -1.19351467896004   -1.53831015247394   -0.07619879904208
H          -0.58035604809168   -0.56218815806010   -1.41037433567177
H          -2.56244731843616    0.47811264130047   -0.30209880807503
H          -1.14554063005213    1.51444961405290   -0.16973020440188
H          -1.66911660633785    0.55688217424125    1.21737319348641
          14
 energy: -13.664789779952 gnorm: 0.000070380337 xtb: 6.2.2 (655bc02)   !mtd4
C          -1.56866086186136   -0.56188778789941   -0.13388050526218
C          -0.69306149885782    0.59946950329141    0.32334348004235
C           0.69301559905765    0.59977438491749   -0.32319488723560
C           1.56872350671058   -0.56165192237314    0.13375295431532
H           1.66491393449109   -0.56134233300153    1.21755661528828
H           1.14632223157821   -1.51421782391636   -0.17475664158118
H           2.56314269375217   -0.47685001067737   -0.29873638295298
H           0.58221557736359    0.56508120676581   -1.40955927283182
H           1.19407627792187    1.53812767903671   -0.07257245557034
H          -1.19427027798736    1.53781451975236    0.07303038667225
H          -0.58223272268418    0.56447460892262    1.40970667592366
H          -1.14350335323155   -1.51467371708817    0.17000868943238
H          -1.66882523526983   -0.55838785812784   -1.21727648570491
H          -2.56163775098304   -0.48011732960259    0.30246923946479
          14
 energy: -13.664789350621 gnorm: 0.000075820407 xtb: 6.2.2 (655bc02)   !mtd10
C           1.56934738420817   -0.56132091098191   -0.13364420005222
C           0.69269963840152    0.59925424542790    0.32358382970622
C          -0.69279949966285    0.59911444317721   -0.32424119891979
C          -1.56934044550229   -0.56116257988263    0.13393754844075
H          -1.67104536240880   -0.55552689556494    1.21720497445772
H          -2.56167104537824   -0.47991789924267   -0.30401278456222
H          -1.14397768265109   -1.51467100779979   -0.16750421716297
H          -1.19377025067353    1.53810893281440   -0.07584891617867
H          -0.58097801613175    0.56235817719075   -1.41043916994363
H           0.58090418151728    0.56321048125666    1.40979465388753
H           1.19370200141649    1.53805322675077    0.07454707831536
H           1.14661656993566   -1.51441063978555    0.17282003321053
H           2.56319063397807   -0.47698295756375    0.30028909908732
H           1.66694495295135   -0.55935364579643   -1.21730689028593
          14
 energy: -13.664788462773 gnorm: 0.000090647716 xtb: 6.2.2 (655bc02)   !mtd2
C          -1.57014899250257    0.56073266697823    0.13377117268703
C          -0.69238382932772   -0.59848801063882   -0.32476999968317
C           0.69238538702627   -0.59878577383122    0.32463101535692
C           1.57017248457379    0.56045807159654   -0.13381945146144
H           1.67198549709385    0.55443701794271   -1.21707900385224
H           1.14590952721295    1.51455943749188    0.16729604390064
H           2.56234916256194    0.47825345300472    0.30426209780339
H           0.57934296554251   -0.56081962110942    1.41064430698094
H           1.19304629338910   -1.53834891008267    0.07777695602840
H          -1.19317472376510   -1.53800754351433   -0.07806955203583
H          -0.57931753417098   -0.56040845770165   -1.41078287490337
H          -2.56136966660853    0.48057887102067   -0.30690759836353
H          -1.14397825616150    1.51492756468202   -0.16433032912867
H          -1.67461664486401    0.55263451416133    1.21675946667093
          14
 energy: -13.664790076802 gnorm: 0.000094093847 xtb: 6.2.2 (655bc02)   !mtd10
C          -1.56406583000000    0.56497681000000   -0.13355792000000
C          -0.69485351000000   -0.60297261000000    0.31925076000000
C           0.69484293000000   -0.60289827000000   -0.31928075000000
C           1.56408233000000    0.56494377000000    0.13359941000000
H           1.64876458000000    0.57697372000000    1.21826004000000
H           2.56315792000000    0.47688519000000   -0.28741571000000
H           1.14343256000000    1.51317060000000   -0.19023491000000
H           1.19729961000000   -1.53794381000000   -0.05900909000000
H           0.59005692000000   -0.57646001000000   -1.40650725000000
H          -0.59006760000000   -0.57689298000000    1.40646910000000
H          -1.19728319000000   -1.53790666000000    0.05869135000000
H          -1.64682340000000    0.57869622000000   -1.21839965000000
H          -1.14474996000000    1.51306262000000    0.19251247000000
H          -2.56385809000000    0.47550384000000    0.28549658000000
          14
 energy: -13.664789415533 gnorm: 0.000089566005 xtb: 6.2.2 (655bc02)   !mtd7
C           1.56306020000000    0.56562451000000   -0.13343551000000
C           0.69522356000000   -0.60366048000000    0.31846562000000
C          -0.69524548000000   -0.60366747000000   -0.31846964000000
C          -1.56303144000000    0.56564862000000    0.13343420000000
H          -1.14421729000000    1.51258606000000   -0.19651207000000
H          -2.56393730000000    0.47535683000000   -0.28281841000000
H          -1.64292567000000    0.58246214000000    1.21844812000000
H          -0.59189391000000   -0.57945673000000   -1.40587327000000
H          -1.19808028000000   -1.53774437000000   -0.05569604000000
H           1.19800431000000   -1.53782908000000    0.05583019000000
H           0.59179119000000   -0.57932547000000    1.40586625000000
H           2.56285229000000    0.47723836000000    0.28569775000000
H           1.14238362000000    1.51280036000000    0.19329173000000
H           1.64594158000000    0.58024629000000   -1.21817075000000
          14
 energy: -13.664789605074 gnorm: 0.000170179428 xtb: 6.2.2 (655bc02)   !mtd2
C           1.56892709250030   -0.56115740465256    0.13412205460726
C           0.69295520007274    0.59957771122973   -0.32397054475470
C          -0.69282068216920    0.59930907151391    0.32322349078564
C          -1.56899915975551   -0.56181976983142   -0.13356056671913
H          -1.14681869230181   -1.51452885496477    0.17472964161578
H          -2.56346142595130   -0.47692900266620    0.29881439748357
H          -1.66507781511129   -0.56134648908839   -1.21733295157056
H          -0.58138475439672    0.56395329694767    1.40948640566497
H          -1.19391289031893    1.53785566553720    0.07347687338251
H           1.19394041469599    1.53843717512179   -0.07498730305071
H           0.58154126442780    0.56321617436488   -1.41022449610725
H           1.66880397206948   -0.55701453707403    1.21756554243908
H           2.56194974116726   -0.47889338536581   -0.30204923133340
H           1.14442094507119   -1.51440118107199   -0.16938864244307
          14
 energy: -13.664788701333 gnorm: 0.000067803746 xtb: 6.2.2 (655bc02)   !mtd2
C           1.56999866148938   -0.56066818369016    0.13390274653014
C           0.69244365165505    0.59868093305067   -0.32468771469068
C          -0.69239915328284    0.59877587838174    0.32453209171255
C          -1.57003301393672   -0.56064024687817   -0.13378945745370
H          -1.67110215403121   -0.55524315824858   -1.21712270434733
H          -1.14600489221520   -1.51458103665148    0.16816990991638
H          -2.56251044656209   -0.47812057789770    0.30357700083469
H          -0.57943678517880    0.56096495975469    1.41056309469873
H          -1.19315603055948    1.53823896592382    0.07749665688534
H           1.19326040602037    1.53817326227202   -0.07787946867528
H           0.57946791101186    0.56063535409121   -1.41071280447843
H           1.67337423095290   -0.55342653330130    1.21699925382613
H           2.56162201159739   -0.47984405361140   -0.30568992631967
H           1.14445139303941   -1.51474907319536   -0.16543189843886
          14
 energy: -13.665794584612 gnorm: 0.000188798251 xtb: 6.2.2 (655bc02)   !md1
C           1.92899255332971   -0.11964282140892   -0.02043519933370
C           0.54928796290906    0.52743579447559   -0.04984921427960
C          -0.56955842026591   -0.51142620151685   -0.01565353652590
C          -1.94927199181773    0.13555288106806   -0.04436672160126
H          -2.72878885474345   -0.62238362092096   -0.02215268480224
H          -2.08132262635018    0.78958739663540    0.81498220371061
H          -2.07302031481513    0.72927522987589   -0.94752622577515
H          -0.46464447501046   -1.18058464913770   -0.87300230484875
H          -0.47096798118839   -1.11596202544053    0.88916716107991
H           0.44426447956197    1.19695689728093    0.80718363301309
H           0.45094385770643    1.13152358147138   -0.95494156645840
H           2.05496483784804   -0.70716781174149    0.88644441030898
H           2.70854633527241    0.63802586387350   -0.04992877753435
H           2.05872081956347   -0.77957588451434   -0.87547491425318
          14
 energy: -13.665794252157 gnorm: 0.000091961731 xtb: 6.2.2 (655bc02)   !md1
C           1.93310178586494   -0.13260296259774    0.02540438204822
C           0.55808918631429    0.52356966285605   -0.01513571294820
C          -0.56822285887739   -0.50674308854920    0.02973682147072
C          -1.94318117500415    0.15013811809674    0.00204170691442