<?xml version="1.0" encoding="ISO-8859-1"?>
<modeling>
 <generator>
  <i name="program" type="string">vasp </i>
  <i name="version" type="string">5.4.1  </i>
  <i name="subversion" type="string">24Jun15 (build Jul 13 2016 16:36:47) complex                          parallel </i>
  <i name="platform" type="string">IFC91_ompi </i>
  <i name="date" type="string">2019 04 23 </i>
  <i name="time" type="string">20:58:06 </i>
 </generator>
 <incar>
  <i type="string" name="PREC">accurate</i>
  <i type="string" name="ALGO"> Normal</i>
  <i type="int" name="ISPIN">     1</i>
  <i type="int" name="NELM">   200</i>
  <i type="int" name="NELMIN">     4</i>
  <i type="int" name="IBRION">     2</i>
  <i name="EDIFF">      0.00000010</i>
  <i name="EDIFFG">      0.00001000</i>
  <i type="int" name="NSW">     0</i>
  <i type="int" name="ISIF">     3</i>
  <i type="int" name="ISYM">    -1</i>
  <i name="ENCUT">    520.00000000</i>
  <i type="int" name="NBANDS">    36</i>
  <i name="POTIM">      0.50000000</i>
  <i type="int" name="ISMEAR">     0</i>
  <i name="SIGMA">      0.10000000</i>
  <i type="logical" name="LWAVE"> T  </i>
  <i type="logical" name="LCHARG"> F  </i>
  <v type="int" name="KPOINT_BSE">    -1     0     0     0</v>
  <i type="int" name="NELM">   200</i>
 </incar>
 <kpoints>
  <varray name="kpointlist" >
   <v>       0.00000000       0.00000000       0.00000000 </v>
   <v>       0.25000000       0.00000000       0.00000000 </v>
   <v>       0.50000000       0.00000000       0.00000000 </v>
   <v>      -0.25000000       0.00000000       0.00000000 </v>
   <v>       0.00000000       0.25000000       0.00000000 </v>
   <v>       0.25000000       0.25000000       0.00000000 </v>
   <v>       0.50000000       0.25000000       0.00000000 </v>
   <v>      -0.25000000       0.25000000       0.00000000 </v>
   <v>       0.00000000       0.50000000       0.00000000 </v>
   <v>       0.25000000       0.50000000       0.00000000 </v>
   <v>       0.50000000       0.50000000       0.00000000 </v>
   <v>      -0.25000000       0.50000000       0.00000000 </v>
   <v>       0.00000000      -0.25000000       0.00000000 </v>
   <v>       0.25000000      -0.25000000       0.00000000 </v>
   <v>       0.50000000      -0.25000000       0.00000000 </v>
   <v>      -0.25000000      -0.25000000       0.00000000 </v>
   <v>       0.00000000       0.00000000       0.33333333 </v>
   <v>       0.25000000       0.00000000       0.33333333 </v>
   <v>       0.50000000       0.00000000       0.33333333 </v>
   <v>      -0.25000000       0.00000000       0.33333333 </v>
   <v>       0.00000000       0.25000000       0.33333333 </v>
   <v>       0.25000000       0.25000000       0.33333333 </v>
   <v>       0.50000000       0.25000000       0.33333333 </v>
   <v>      -0.25000000       0.25000000       0.33333333 </v>
   <v>       0.00000000       0.50000000       0.33333333 </v>
   <v>       0.25000000       0.50000000       0.33333333 </v>
   <v>       0.50000000       0.50000000       0.33333333 </v>
   <v>      -0.25000000       0.50000000       0.33333333 </v>
   <v>       0.00000000      -0.25000000       0.33333333 </v>
   <v>       0.25000000      -0.25000000       0.33333333 </v>
   <v>       0.50000000      -0.25000000       0.33333333 </v>
   <v>      -0.25000000      -0.25000000       0.33333333 </v>
   <v>       0.00000000       0.00000000      -0.33333333 </v>
   <v>       0.25000000       0.00000000      -0.33333333 </v>
   <v>       0.50000000       0.00000000      -0.33333333 </v>
   <v>      -0.25000000       0.00000000      -0.33333333 </v>
   <v>       0.00000000       0.25000000      -0.33333333 </v>
   <v>       0.25000000       0.25000000      -0.33333333 </v>
   <v>       0.50000000       0.25000000      -0.33333333 </v>
   <v>      -0.25000000       0.25000000      -0.33333333 </v>
   <v>       0.00000000       0.50000000      -0.33333333 </v>
   <v>       0.25000000       0.50000000      -0.33333333 </v>
   <v>       0.50000000       0.50000000      -0.33333333 </v>
   <v>      -0.25000000       0.50000000      -0.33333333 </v>
   <v>       0.00000000      -0.25000000      -0.33333333 </v>
   <v>       0.25000000      -0.25000000      -0.33333333 </v>
   <v>       0.50000000      -0.25000000      -0.33333333 </v>
   <v>      -0.25000000      -0.25000000      -0.33333333 </v>
   <v>       0.00000000       0.00000000       0.00000000 </v>
   <v>       0.01136364       0.00000000       0.00000000 </v>
   <v>       0.02272727       0.00000000       0.00000000 </v>
   <v>       0.03409091       0.00000000       0.00000000 </v>
   <v>       0.04545455       0.00000000       0.00000000 </v>
   <v>       0.05681818      -0.00000000       0.00000000 </v>
   <v>       0.06818182       0.00000000       0.00000000 </v>
   <v>       0.07954545       0.00000000       0.00000000 </v>
   <v>       0.09090909       0.00000000       0.00000000 </v>
   <v>       0.10227273       0.00000000       0.00000000 </v>
   <v>       0.11363636      -0.00000000       0.00000000 </v>
   <v>       0.12500000       0.00000000       0.00000000 </v>
   <v>       0.13636364       0.00000000       0.00000000 </v>
   <v>       0.14772727       0.00000000       0.00000000 </v>
   <v>       0.15909091       0.00000000       0.00000000 </v>
   <v>       0.17045455       0.00000000       0.00000000 </v>
   <v>       0.18181818       0.00000000       0.00000000 </v>
   <v>       0.19318182       0.00000000       0.00000000 </v>
   <v>       0.20454545       0.00000000       0.00000000 </v>
   <v>       0.21590909       0.00000000       0.00000000 </v>
   <v>       0.22727273      -0.00000000       0.00000000 </v>
   <v>       0.23863636      -0.00000000       0.00000000 </v>
   <v>       0.25000000       0.00000000       0.00000000 </v>
   <v>       0.26136364       0.00000000       0.00000000 </v>
   <v>       0.27272727       0.00000000       0.00000000 </v>
   <v>       0.28409091       0.00000000       0.00000000 </v>
   <v>       0.29545455       0.00000000       0.00000000 </v>
   <v>       0.30681818       0.00000000       0.00000000 </v>
   <v>       0.31818182       0.00000000       0.00000000 </v>
   <v>       0.32954545      -0.00000000       0.00000000 </v>
   <v>       0.34090909       0.00000000       0.00000000 </v>
   <v>       0.35227273       0.00000000       0.00000000 </v>
   <v>       0.36363636       0.00000000       0.00000000 </v>
   <v>       0.37500000      -0.00000000       0.00000000 </v>
   <v>       0.38636364       0.00000000       0.00000000 </v>
   <v>       0.39772727       0.00000000       0.00000000 </v>
   <v>       0.40909091       0.00000000       0.00000000 </v>
   <v>       0.42045455       0.00000000       0.00000000 </v>
   <v>       0.43181818       0.00000000       0.00000000 </v>
   <v>       0.44318182       0.00000000       0.00000000 </v>
   <v>       0.45454545      -0.00000000       0.00000000 </v>
   <v>       0.46590909       0.00000000       0.00000000 </v>
   <v>       0.47727273      -0.00000000       0.00000000 </v>
   <v>       0.48863636      -0.00000000       0.00000000 </v>
   <v>       0.50000000       0.00000000       0.00000000 </v>
   <v>       0.49358974       0.01282051       0.00000000 </v>
   <v>       0.48717949       0.02564103       0.00000000 </v>
   <v>       0.48076923       0.03846154       0.00000000 </v>
   <v>       0.47435897       0.05128205       0.00000000 </v>
   <v>       0.46794872       0.06410256       0.00000000 </v>
   <v>       0.46153846       0.07692308       0.00000000 </v>
   <v>       0.45512821       0.08974359       0.00000000 </v>
   <v>       0.44871795       0.10256410       0.00000000 </v>
   <v>       0.44230769       0.11538462       0.00000000 </v>
   <v>       0.43589744       0.12820513       0.00000000 </v>
   <v>       0.42948718       0.14102564       0.00000000 </v>
   <v>       0.42307692       0.15384615       0.00000000 </v>
   <v>       0.41666667       0.16666667       0.00000000 </v>
   <v>       0.41025641       0.17948718       0.00000000 </v>
   <v>       0.40384615       0.19230769       0.00000000 </v>
   <v>       0.39743590       0.20512821       0.00000000 </v>
   <v>       0.39102564       0.21794872       0.00000000 </v>
   <v>       0.38461538       0.23076923       0.00000000 </v>
   <v>       0.37820513       0.24358974       0.00000000 </v>
   <v>       0.37179487       0.25641026       0.00000000 </v>
   <v>       0.36538462       0.26923077       0.00000000 </v>
   <v>       0.35897436       0.28205128       0.00000000 </v>
   <v>       0.35256410       0.29487179       0.00000000 </v>
   <v>       0.34615385       0.30769231       0.00000000 </v>
   <v>       0.33974359       0.32051282       0.00000000 </v>
   <v>       0.33333333       0.33333333       0.00000000 </v>
  </varray>
  <varray name="weights" >
   <v>       0.02083333 </v>
   <v>       0.02083333 </v>
   <v>       0.02083333 </v>
   <v>       0.02083333 </v>
   <v>       0.02083333 </v>
   <v>       0.02083333 </v>
   <v>       0.02083333 </v>
   <v>       0.02083333 </v>
   <v>       0.02083333 </v>
   <v>       0.02083333 </v>
   <v>       0.02083333 </v>
   <v>       0.02083333 </v>
   <v>       0.02083333 </v>
   <v>       0.02083333 </v>
   <v>       0.02083333 </v>
   <v>       0.02083333 </v>
   <v>       0.02083333 </v>
   <v>       0.02083333 </v>
   <v>       0.02083333 </v>
   <v>       0.02083333 </v>
   <v>       0.02083333 </v>
   <v>       0.02083333 </v>
   <v>       0.02083333 </v>
   <v>       0.02083333 </v>
   <v>       0.02083333 </v>
   <v>       0.02083333 </v>
   <v>       0.02083333 </v>
   <v>       0.02083333 </v>
   <v>       0.02083333 </v>
   <v>       0.02083333 </v>
   <v>       0.02083333 </v>
   <v>       0.02083333 </v>
   <v>       0.02083333 </v>
   <v>       0.02083333 </v>
   <v>       0.02083333 </v>
   <v>       0.02083333 </v>
   <v>       0.02083333 </v>
   <v>       0.02083333 </v>
   <v>       0.02083333 </v>
   <v>       0.02083333 </v>
   <v>       0.02083333 </v>
   <v>       0.02083333 </v>
   <v>       0.02083333 </v>
   <v>       0.02083333 </v>
   <v>       0.02083333 </v>
   <v>       0.02083333 </v>
   <v>       0.02083333 </v>
   <v>       0.02083333 </v>
   <v>       0.00000000 </v>
   <v>       0.00000000 </v>
   <v>       0.00000000 </v>
   <v>       0.00000000 </v>
   <v>       0.00000000 </v>
   <v>       0.00000000 </v>
   <v>       0.00000000 </v>
   <v>       0.00000000 </v>
   <v>       0.00000000 </v>
   <v>       0.00000000 </v>
   <v>       0.00000000 </v>
   <v>       0.00000000 </v>
   <v>       0.00000000 </v>
   <v>       0.00000000 </v>
   <v>       0.00000000 </v>
   <v>       0.00000000 </v>
   <v>       0.00000000 </v>
   <v>       0.00000000 </v>
   <v>       0.00000000 </v>
   <v>       0.00000000 </v>
   <v>       0.00000000 </v>
   <v>       0.00000000 </v>
   <v>       0.00000000 </v>
   <v>       0.00000000 </v>
   <v>       0.00000000 </v>
   <v>       0.00000000 </v>
   <v>       0.00000000 </v>
   <v>       0.00000000 </v>
   <v>       0.00000000 </v>
   <v>       0.00000000 </v>
   <v>       0.00000000 </v>
   <v>       0.00000000 </v>
   <v>       0.00000000 </v>
   <v>       0.00000000 </v>
   <v>       0.00000000 </v>
   <v>       0.00000000 </v>
   <v>       0.00000000 </v>
   <v>       0.00000000 </v>
   <v>       0.00000000 </v>
   <v>       0.00000000 </v>
   <v>       0.00000000 </v>
   <v>       0.00000000 </v>
   <v>       0.00000000 </v>
   <v>       0.00000000 </v>
   <v>       0.00000000 </v>
   <v>       0.00000000 </v>
   <v>       0.00000000 </v>
   <v>       0.00000000 </v>
   <v>       0.00000000 </v>
   <v>       0.00000000 </v>
   <v>       0.00000000 </v>
   <v>       0.00000000 </v>
   <v>       0.00000000 </v>
   <v>       0.00000000 </v>
   <v>       0.00000000 </v>
   <v>       0.00000000 </v>
   <v>       0.00000000 </v>
   <v>       0.00000000 </v>
   <v>       0.00000000 </v>
   <v>       0.00000000 </v>
   <v>       0.00000000 </v>
   <v>       0.00000000 </v>
   <v>       0.00000000 </v>
   <v>       0.00000000 </v>
   <v>       0.00000000 </v>
   <v>       0.00000000 </v>
   <v>       0.00000000 </v>
   <v>       0.00000000 </v>
   <v>       0.00000000 </v>
   <v>       0.00000000 </v>
   <v>       0.00000000 </v>
  </varray>
 </kpoints>
 <parameters>
  <separator name="general" >
   <i type="string" name="SYSTEM">unknown system</i>
   <i type="logical" name="LCOMPAT"> F  </i>
  </separator>
  <separator name="electronic" >
   <i type="string" name="PREC">accura</i>
   <i name="ENMAX">    520.00000000</i>
   <i name="ENAUG">    605.39200000</i>
   <i name="EDIFF">      0.00000010</i>
   <i type="int" name="IALGO">    38</i>
   <i type="int" name="IWAVPR">    10</i>
   <i type="int" name="NBANDS">    36</i>
   <i name="NELECT">     48.00000000</i>
   <i type="int" name="TURBO">     0</i>
   <i type="int" name="IRESTART">     0</i>
   <i type="int" name="NREBOOT">     0</i>
   <i type="int" name="NMIN">     0</i>
   <i name="EREF">      0.00000000</i>
   <separator name="electronic smearing" >
    <i type="int" name="ISMEAR">     0</i>
    <i name="SIGMA">      0.10000000</i>
    <i name="KSPACING">      0.50000000</i>
    <i type="logical" name="KGAMMA"> T  </i>
   </separator>
   <separator name="electronic projectors" >
    <i type="logical" name="LREAL"> F  </i>
    <v name="ROPT">      0.00000000      0.00000000</v>
    <i type="int" name="LMAXPAW">  -100</i>
    <i type="int" name="LMAXMIX">     2</i>
    <i type="logical" name="NLSPLINE"> F  </i>
   </separator>
   <separator name="electronic startup" >
    <i type="int" name="ISTART">     1</i>
    <i type="int" name="ICHARG">     0</i>
    <i type="int" name="INIWAV">     1</i>
   </separator>
   <separator name="electronic spin" >
    <i type="int" name="ISPIN">     1</i>
    <i type="logical" name="LNONCOLLINEAR"> F  </i>
    <v name="MAGMOM">      1.00000000      1.00000000      1.00000000      1.00000000      1.00000000      1.00000000      1.00000000      1.00000000      1.00000000</v>
    <i name="NUPDOWN">     -1.00000000</i>
    <i type="logical" name="LSORBIT"> F  </i>
    <v name="SAXIS">      0.00000000      0.00000000      1.00000000</v>
    <i type="logical" name="LSPIRAL"> F  </i>
    <v name="QSPIRAL">      0.00000000      0.00000000      0.00000000</v>
    <i type="logical" name="LZEROZ"> F  </i>
   </separator>
   <separator name="electronic exchange-correlation" >
    <i type="logical" name="LASPH"> F  </i>
    <i type="logical" name="LMETAGGA"> F  </i>
   </separator>
   <separator name="electronic convergence" >
    <i type="int" name="NELM">   200</i>
    <i type="int" name="NELMDL">     0</i>
    <i type="int" name="NELMIN">     4</i>
    <i name="ENINI">    520.00000000</i>
    <separator name="electronic convergence detail" >
     <i type="logical" name="LDIAG"> T  </i>
     <i type="logical" name="LSUBROT"> F  </i>
     <i name="WEIMIN">      0.00000000</i>
     <i name="EBREAK">      0.00000000</i>
     <i name="DEPER">      0.30000000</i>
     <i type="int" name="NRMM">     4</i>
     <i name="TIME">      0.40000000</i>
    </separator>
   </separator>
   <separator name="electronic mixer" >
    <i name="AMIX">      0.40000000</i>
    <i name="BMIX">      1.00000000</i>
    <i name="AMIN">      0.10000000</i>
    <i name="AMIX_MAG">      1.60000000</i>
    <i name="BMIX_MAG">      1.00000000</i>
    <separator name="electronic mixer details" >
     <i type="int" name="IMIX">     4</i>
     <i type="logical" name="MIXFIRST"> F  </i>
     <i type="int" name="MAXMIX">   -45</i>
     <i name="WC">    100.00000000</i>
     <i type="int" name="INIMIX">     1</i>
     <i type="int" name="MIXPRE">     1</i>
     <i type="int" name="MREMOVE">     5</i>
    </separator>
   </separator>
   <separator name="electronic dipolcorrection" >
    <i type="logical" name="LDIPOL"> F  </i>
    <i type="logical" name="LMONO"> F  </i>
    <i type="int" name="IDIPOL">     0</i>
    <i name="EPSILON">      1.00000000</i>
    <v name="DIPOL">   -100.00000000   -100.00000000   -100.00000000</v>
    <i name="EFIELD">      0.00000000</i>
   </separator>
  </separator>
  <separator name="grids" >
   <i type="int" name="NGX">    40</i>
   <i type="int" name="NGY">    40</i>
   <i type="int" name="NGZ">    42</i>
   <i type="int" name="NGXF">    80</i>
   <i type="int" name="NGYF">    80</i>
   <i type="int" name="NGZF">    84</i>
   <i type="logical" name="ADDGRID"> F  </i>
  </separator>
  <separator name="ionic" >
   <i type="int" name="NSW">     0</i>
   <i type="int" name="IBRION">    -1</i>
   <i type="int" name="ISIF">     3</i>
   <i name="PSTRESS">      0.00000000</i>
   <i name="EDIFFG">      0.00001000</i>
   <i type="int" name="NFREE">     1</i>
   <i name="POTIM">      0.50000000</i>
   <i name="SMASS">     -3.00000000</i>
   <i name="SCALEE">      1.00000000</i>
  </separator>
  <separator name="ionic md" >
   <i name="TEBEG">      0.00010000</i>
   <i name="TEEND">      0.00010000</i>
   <i type="int" name="NBLOCK">     1</i>
   <i type="int" name="KBLOCK">     1</i>
   <i type="int" name="NPACO">   256</i>
   <i name="APACO">     16.00000000</i>
  </separator>
  <separator name="symmetry" >
   <i type="int" name="ISYM">    -1</i>
   <i name="SYMPREC">      0.00001000</i>
  </separator>
  <separator name="dos" >
   <i type="logical" name="LORBIT"> F  </i>
   <v name="RWIGS">     -1.00000000     -1.00000000</v>
   <i type="int" name="NEDOS">   301</i>
   <i name="EMIN">     10.00000000</i>
   <i name="EMAX">    -10.00000000</i>
   <i name="EFERMI">      0.00000000</i>
  </separator>
  <separator name="writing" >
   <i type="int" name="NWRITE">     2</i>
   <i type="logical" name="LWAVE"> T  </i>
   <i type="logical" name="LCHARG"> F  </i>
   <i type="logical" name="LPARD"> F  </i>
   <i type="logical" name="LVTOT"> F  </i>
   <i type="logical" name="LVHAR"> F  </i>
   <i type="logical" name="LELF"> F  </i>
   <i type="logical" name="LOPTICS"> F  </i>
   <v name="STM">      0.00000000      0.00000000      0.00000000      0.00000000      0.00000000      0.00000000      0.00000000</v>
  </separator>
  <separator name="performance" >
   <i type="int" name="NPAR">     4</i>
   <i type="int" name="NSIM">     4</i>
   <i type="int" name="NBLK">    -1</i>
   <i type="logical" name="LPLANE"> T  </i>
   <i type="logical" name="LSCALAPACK"> T  </i>
   <i type="logical" name="LSCAAWARE"> F  </i>
   <i type="logical" name="LSCALU"> F  </i>
   <i type="logical" name="LASYNC"> F  </i>
   <i type="logical" name="LORBITALREAL"> F  </i>
  </separator>
  <separator name="miscellaneous" >
   <i type="int" name="IDIOT">     3</i>
   <i type="logical" name="LMUSIC"> F  </i>
   <v name="POMASS">     28.08500000     16.00000000</v>
   <v name="DARWINR">      0.00000000      0.00000000</v>
   <v name="DARWINV">      1.00000000      1.00000000</v>
   <i type="logical" name="LCORR"> T  </i>
  </separator>
  <i type="logical" name="GGA_COMPAT"> T  </i>
  <i type="logical" name="LBERRY"> F  </i>
  <i type="int" name="ICORELEVEL">     0</i>
  <i type="logical" name="LDAU"> F  </i>
  <i type="int" name="I_CONSTRAINED_M">     0</i>
  <separator name="electronic exchange-correlation" >
   <i type="string" name="GGA">--</i>
   <i type="int" name="VOSKOWN">     0</i>
   <i type="logical" name="LHFCALC"> F  </i>
   <i type="string" name="PRECFOCK"></i>
   <i type="logical" name="LSYMGRAD"> F  </i>
   <i type="logical" name="LHFONE"> F  </i>
   <i type="logical" name="LRHFCALC"> F  </i>
   <i type="logical" name="LTHOMAS"> F  </i>
   <i type="logical" name="LMODELHF"> F  </i>
   <i name="ENCUT4O">     -1.00000000</i>
   <i type="int" name="EXXOEP">     0</i>
   <i type="int" name="FOURORBIT">     0</i>
   <i name="AEXX">      0.00000000</i>
   <i name="HFALPHA">      0.00000000</i>
   <i name="MCALPHA">      0.00000000</i>
   <i name="ALDAX">      1.00000000</i>
   <i name="AGGAX">      1.00000000</i>
   <i name="ALDAC">      1.00000000</i>
   <i name="AGGAC">      1.00000000</i>
   <i type="int" name="NKREDX">     1</i>
   <i type="int" name="NKREDY">     1</i>
   <i type="int" name="NKREDZ">     1</i>
   <i type="logical" name="SHIFTRED"> F  </i>
   <i type="logical" name="ODDONLY"> F  </i>
   <i type="logical" name="EVENONLY"> F  </i>
   <i type="int" name="LMAXFOCK">     0</i>
   <i type="int" name="NMAXFOCKAE">     0</i>
   <i type="logical" name="LFOCKAEDFT"> F  </i>
   <i name="HFSCREEN">      0.00000000</i>
   <i name="HFSCREENC">      0.00000000</i>
   <i type="int" name="NBANDSGWLOW">     0</i>
  </separator>
  <separator name="vdW DFT" >
   <i type="logical" name="LUSE_VDW"> F  </i>
   <i name="Zab_VDW">     -0.84910000</i>
   <i name="PARAM1">      0.12340000</i>
   <i name="PARAM2">      1.00000000</i>
   <i name="PARAM3">      0.00000000</i>
  </separator>
  <separator name="model GW" >
   <i type="int" name="MODEL_GW">     0</i>
   <i name="MODEL_EPS0">      8.02562307</i>
   <i name="MODEL_ALPHA">      1.00000000</i>
  </separator>
  <separator name="linear response parameters" >
   <i type="logical" name="LEPSILON"> F  </i>
   <i type="logical" name="LRPA"> F  </i>
   <i type="logical" name="LNABLA"> F  </i>
   <i type="logical" name="LVEL"> F  </i>
   <i type="int" name="KINTER">     0</i>
   <i name="CSHIFT">      0.10000000</i>
   <i name="OMEGAMAX">     -1.00000000</i>
   <i name="DEG_THRESHOLD">      0.00200000</i>
  </separator>
  <separator name="orbital magnetization" >
   <i type="logical" name="NUCIND"> F  </i>
   <v name="MAGPOS">      0.00000000      0.00000000      0.00000000</v>
   <i type="logical" name="LNICSALL"> T  </i>
   <i type="logical" name="ORBITALMAG"> F  </i>
   <i type="logical" name="LMAGBLOCH"> F  </i>
   <i type="logical" name="LCHIMAG"> F  </i>
   <i type="logical" name="LGAUGE"> T  </i>
   <i type="int" name="MAGATOM">     0</i>
   <v name="MAGDIPOL">      0.00000000      0.00000000      0.00000000</v>
   <v name="AVECCONST">      0.00000000      0.00000000      0.00000000</v>
  </separator>
  <separator name="response functions" >
   <i type="logical" name="LADDER"> F  </i>
   <i type="logical" name="LFXC"> F  </i>
   <i type="logical" name="LHARTREE"> T  </i>
   <i type="int" name="IBSE">     0</i>
   <v type="int" name="KPOINT">    -1     0     0     0</v>
   <i type="logical" name="LTCTE"> F  </i>
   <i type="logical" name="LTETE"> F  </i>
   <i type="logical" name="LTRIPLET"> F  </i>
   <i type="logical" name="LFXCEPS"> F  </i>
   <i type="logical" name="LFXHEG"> F  </i>
   <i type="int" name="NATURALO">     0</i>
   <i type="logical" name="L2ORDER"> F  </i>
   <i type="logical" name="LUSEW"> F  </i>
   <i name="ENCUTGW">     -2.00000000</i>
   <i name="ENCUTGWSOFT">     -2.00000000</i>
   <i name="ENCUTLF">     -1.00000000</i>
   <i type="int" name="LMAXMP2">    -1</i>
   <i name="SCISSOR">      0.00000000</i>
   <i type="int" name="NOMEGA">     0</i>
   <i type="int" name="NOMEGAR">     0</i>
   <i type="int" name="NBANDSGW">    -1</i>
   <i type="int" name="NBANDSO">    -1</i>
   <i type="int" name="NBANDSV">    -1</i>
   <i type="int" name="NELM">   200</i>
   <i type="int" name="NELMHF">     1</i>
   <i type="int" name="DIM">     3</i>
   <i type="int" name="ANTIRES">     0</i>
   <i name="OMEGAMAX">    -30.00000000</i>
   <i name="OMEGAMIN">    -30.00000000</i>
   <i name="OMEGATL">   -200.00000000</i>
   <i type="int" name="OMEGAGRID">     0</i>
   <i name="CSHIFT">     -0.10000000</i>
   <i type="logical" name="SELFENERGY"> F  </i>
   <i type="logical" name="LSPECTRAL"> F  </i>
   <i type="logical" name="LSPECTRALGW"> F  </i>
   <i type="logical" name="LSINGLES"> F  </i>
   <i type="logical" name="LFERMIGW"> F  </i>
   <i type="logical" name="ODDONLYGW"> F  </i>
   <i type="logical" name="EVENONLYGW"> F  </i>
   <i type="int" name="NKREDLFX">     1</i>
   <i type="int" name="NKREDLFY">     1</i>
   <i type="int" name="NKREDLFZ">     1</i>
   <i type="int" name="MAXMEM">  1800</i>
   <i type="int" name="TELESCOPE">     0</i>
   <i type="int" name="TAUPAR">     1</i>
   <i type="int" name="OMEGAPAR">    -1</i>
   <i name="LAMBDA">      1.00000000</i>
  </separator>
  <separator name="External order field" >
   <i name="OFIELD_KAPPA">      0.00000000</i>
   <v name="OFIELD_K">      0.00000000      0.00000000      0.00000000</v>
   <i name="OFIELD_Q6_NEAR">      0.00000000</i>
   <i name="OFIELD_Q6_FAR">      0.00000000</i>
   <i name="OFIELD_A">      0.00000000</i>
  </separator>
 </parameters>
 <atominfo>
  <atoms>       9 </atoms>
  <types>       2 </types>
  <array name="atoms" >
   <dimension dim="1">ion</dimension>
   <field type="string">element</field>
   <field type="int">atomtype</field>
   <set>
    <rc><c>Si</c><c>   1</c></rc>
    <rc><c>Si</c><c>   1</c></rc>
    <rc><c>Si</c><c>   1</c></rc>
    <rc><c>O </c><c>   2</c></rc>
    <rc><c>O </c><c>   2</c></rc>
    <rc><c>O </c><c>   2</c></rc>
    <rc><c>O </c><c>   2</c></rc>
    <rc><c>O </c><c>   2</c></rc>
    <rc><c>O </c><c>   2</c></rc>
   </set>
  </array>
  <array name="atomtypes" >
   <dimension dim="1">type</dimension>
   <field type="int">atomspertype</field>
   <field type="string">element</field>
   <field>mass</field>
   <field>valence</field>
   <field type="string">pseudopotential</field>
   <set>
    <rc><c>   3</c><c>Si</c><c>     28.08500000</c><c>      4.00000000</c><c>  PAW_PBE Si 05Jan2001                  </c></rc>
    <rc><c>   6</c><c>O </c><c>     16.00000000</c><c>      6.00000000</c><c>  PAW_PBE O 08Apr2002                   </c></rc>
   </set>
  </array>
 </atominfo>
 <structure name="initialpos" >
  <crystal>
   <varray name="basis" >
    <v>       5.02189789       0.00000000       0.00000000 </v>
    <v>      -2.51094844       4.34909098       0.00000000 </v>
    <v>       0.00000000       0.00000000       5.51192941 </v>
   </varray>
   <i name="volume">    120.38434609 </i>
   <varray name="rec_basis" >
    <v>       0.19912790       0.11496653       0.00000000 </v>
    <v>      -0.00000000       0.22993311       0.00000000 </v>
    <v>       0.00000000       0.00000000       0.18142467 </v>
   </varray>
  </crystal>
  <varray name="positions" >
   <v>       0.00000000       0.47634315       0.66666700 </v>
   <v>       0.52365685       0.52365685       0.00000000 </v>
   <v>       0.47634315       0.00000000       0.33333300 </v>
   <v>       0.15890378       0.74400316       0.46134773 </v>
   <v>       0.25599684       0.41490062       0.79468073 </v>
   <v>       0.58509938       0.84109622       0.12801473 </v>
   <v>       0.74400316       0.15890378       0.53865227 </v>
   <v>       0.41490062       0.25599684       0.20531927 </v>
   <v>       0.84109622       0.58509938       0.87198527 </v>
  </varray>
 </structure>
 <calculation>
  <scstep>
   <time name="dav">   58.31   58.45</time>
   <time name="total">   59.03   59.25</time>
   <energy>
    <i name="alphaZ">     65.47102554 </i>
    <i name="ewald">  -1824.90142598 </i>
    <i name="hartreedc">  -1106.27118185 </i>
    <i name="XCdc">    149.61062129 </i>
    <i name="pawpsdc">  12707.19613221 </i>
    <i name="pawaedc"> -12668.24932431 </i>
    <i name="eentropy">     -0.00000000 </i>
    <i name="bandstr">   -291.42691928 </i>
    <i name="atom">   2903.34697324 </i>
    <i name="e_fr_energy">    -65.22409915 </i>
    <i name="e_wo_entrp">    -65.22409915 </i>
    <i name="e_0_energy">    -65.22409915 </i>
   </energy>
  </scstep>
  <scstep>
   <time name="dav">   58.93   58.97</time>
   <time name="total">   59.76   59.82</time>
   <energy>
    <i name="e_fr_energy">    -71.21750272 </i>
    <i name="e_wo_entrp">    -71.21750272 </i>
    <i name="e_0_energy">    -71.21750272 </i>
   </energy>
  </scstep>
  <scstep>
   <time name="dav">   50.28   50.31</time>
   <time name="total">   50.99   51.03</time>
   <energy>
    <i name="e_fr_energy">    -71.28394937 </i>
    <i name="e_wo_entrp">    -71.28394937 </i>
    <i name="e_0_energy">    -71.28394937 </i>
   </energy>
  </scstep>
  <scstep>
   <time name="dav">   48.56   48.61</time>
   <time name="total">   49.27   49.32</time>
   <energy>
    <i name="e_fr_energy">    -71.28258037 </i>
    <i name="e_wo_entrp">    -71.28258037 </i>
    <i name="e_0_energy">    -71.28258037 </i>
   </energy>
  </scstep>
  <scstep>
   <time name="dav">   52.97   53.01</time>
   <time name="total">   53.69   53.74</time>
   <energy>
    <i name="e_fr_energy">    -71.32959099 </i>
    <i name="e_wo_entrp">    -71.32959099 </i>
    <i name="e_0_energy">    -71.32959099 </i>
   </energy>
  </scstep>
  <scstep>
   <time name="dav">   71.61   71.66</time>
   <time name="total">   72.56   72.64</time>
   <energy>
    <i name="e_fr_energy">    -71.27734384 </i>
    <i name="e_wo_entrp">    -71.27734384 </i>
    <i name="e_0_energy">    -71.27734384 </i>
   </energy>
  </scstep>
  <scstep>
   <time name="dav">   50.35   50.39</time>
   <time name="total">   51.09   51.13</time>
   <energy>
    <i name="e_fr_energy">    -71.26650240 </i>
    <i name="e_wo_entrp">    -71.26650240 </i>
    <i name="e_0_energy">    -71.26650240 </i>
   </energy>
  </scstep>
  <scstep>
   <time name="dav">   58.68   58.71</time>
   <time name="total">   59.23   59.27</time>
   <energy>
    <i name="e_fr_energy">    -71.26817935 </i>
    <i name="e_wo_entrp">    -71.26817935 </i>
    <i name="e_0_energy">    -71.26817935 </i>
   </energy>
  </scstep>
  <scstep>
   <time name="dav">   54.65   54.69</time>
   <time name="total">   55.20   55.24</time>
   <energy>
    <i name="e_fr_energy">    -71.21527071 </i>
    <i name="e_wo_entrp">    -71.21527071 </i>
    <i name="e_0_energy">    -71.21527071 </i>
   </energy>
  </scstep>
  <scstep>
   <time name="dav">   38.99   39.01</time>
   <time name="total">   39.49   39.52</time>
   <energy>
    <i name="e_fr_energy">    -71.19760444 </i>
    <i name="e_wo_entrp">    -71.19760444 </i>
    <i name="e_0_energy">    -71.19760444 </i>
   </energy>
  </scstep>
  <scstep>
   <time name="dav">   93.31   93.39</time>
   <time name="total">   94.03   94.12</time>
   <energy>
    <i name="e_fr_energy">    -71.18955020 </i>
    <i name="e_wo_entrp">    -71.18955020 </i>
    <i name="e_0_energy">    -71.18955020 </i>
   </energy>
  </scstep>
  <scstep>
   <time name="dav">   67.25   67.32</time>
   <time name="total">   67.71   67.80</time>
   <energy>
    <i name="e_fr_energy">    -71.14971006 </i>
    <i name="e_wo_entrp">    -71.14971006 </i>
    <i name="e_0_energy">    -71.14971006 </i>
   </energy>
  </scstep>
  <scstep>
   <time name="dav">   37.46   37.49</time>
   <time name="total">   37.94   37.98</time>
   <energy>
    <i name="e_fr_energy">    -71.14145767 </i>
    <i name="e_wo_entrp">    -71.14145767 </i>
    <i name="e_0_energy">    -71.14145767 </i>
   </energy>
  </scstep>
  <scstep>
   <time name="dav">   30.52   30.55</time>
   <time name="total">   31.02   31.06</time>
   <energy>
    <i name="e_fr_energy">    -71.13986827 </i>
    <i name="e_wo_entrp">    -71.13986827 </i>
    <i name="e_0_energy">    -71.13986827 </i>
   </energy>
  </scstep>
  <scstep>
   <time name="dav">   34.44   34.49</time>
   <time name="total">   34.85   34.90</time>
   <energy>
    <i name="e_fr_energy">    -71.13736127 </i>
    <i name="e_wo_entrp">    -71.13736127 </i>
    <i name="e_0_energy">    -71.13736127 </i>
   </energy>
  </scstep>
  <scstep>
   <time name="dav">   31.24   31.27</time>
   <time name="total">   31.93   31.97</time>
   <energy>
    <i name="e_fr_energy">    -71.13730097 </i>
    <i name="e_wo_entrp">    -71.13730097 </i>
    <i name="e_0_energy">    -71.13730097 </i>
   </energy>
  </scstep>
  <scstep>
   <time name="dav">   46.79   46.84</time>
   <time name="total">   47.39   47.47</time>
   <energy>
    <i name="e_fr_energy">    -71.13729931 </i>
    <i name="e_wo_entrp">    -71.13729931 </i>
    <i name="e_0_energy">    -71.13729931 </i>
   </energy>
  </scstep>
  <scstep>
   <time name="dav">   40.95   40.99</time>
   <time name="total">   41.69   41.73</time>
   <energy>
    <i name="e_fr_energy">    -71.13729609 </i>
    <i name="e_wo_entrp">    -71.13729609 </i>
    <i name="e_0_energy">    -71.13729609 </i>
   </energy>
  </scstep>
  <scstep>
   <time name="dav">   34.62   34.65</time>
   <time name="total">   35.16   35.20</time>
   <energy>
    <i name="e_fr_energy">    -71.13729441 </i>
    <i name="e_wo_entrp">    -71.13729441 </i>
    <i name="e_0_energy">    -71.13729441 </i>
   </energy>
  </scstep>
  <scstep>
   <time name="dav">   44.56   44.59</time>
   <time name="total">   45.17   45.20</time>
   <energy>
    <i name="e_fr_energy">    -71.13729422 </i>
    <i name="e_wo_entrp">    -71.13729422 </i>
    <i name="e_0_energy">    -71.13729422 </i>
   </energy>
  </scstep>
  <scstep>
   <time name="dav">   20.95   20.96</time>
   <time name="total">   21.24   21.27</time>
   <energy>
    <i name="alphaZ">     65.47102554 </i>
    <i name="ewald">  -1824.90142598 </i>
    <i name="hartreedc">  -1109.53199497 </i>
    <i name="XCdc">    149.84653424 </i>
    <i name="pawpsdc">   7480.44369884 </i>
    <i name="pawaedc">  -7440.72611990 </i>
    <i name="eentropy">     -0.00000000 </i>
    <i name="bandstr">   -295.08598522 </i>
    <i name="atom">   2903.34697324 </i>
    <i name="e_fr_energy">    -71.13729422 </i>
    <i name="e_wo_entrp">    -71.13729422 </i>
    <i name="e_0_energy">    -71.13729422 </i>
   </energy>
  </scstep>
  <structure>
   <crystal>
    <varray name="basis" >
     <v>       5.02189789       0.00000000       0.00000000 </v>
     <v>      -2.51094844       4.34909098       0.00000000 </v>
     <v>       0.00000000       0.00000000       5.51192941 </v>
    </varray>
    <i name="volume">    120.38434609 </i>
    <varray name="rec_basis" >
     <v>       0.19912790       0.11496653       0.00000000 </v>
     <v>      -0.00000000       0.22993311       0.00000000 </v>
     <v>       0.00000000       0.00000000       0.18142467 </v>
    </varray>
   </crystal>
   <varray name="positions" >
    <v>       0.00000000       0.47634315       0.66666700 </v>
    <v>       0.52365685       0.52365685       0.00000000 </v>
    <v>       0.47634315       0.00000000       0.33333300 </v>
    <v>       0.15890378       0.74400316       0.46134773 </v>
    <v>       0.25599684       0.41490062       0.79468073 </v>
    <v>       0.58509938       0.84109622       0.12801473 </v>
    <v>       0.74400316       0.15890378       0.53865227 </v>
    <v>       0.41490062       0.25599684       0.20531927 </v>
    <v>       0.84109622       0.58509938       0.87198527 </v>
   </varray>
  </structure>
  <varray name="forces" >
   <v>       0.00057949      -0.00102341      -0.00014353 </v>
   <v>       0.00062066       0.00101567      -0.00005982 </v>
   <v>      -0.00118804      -0.00004245       0.00021059 </v>
   <v>       0.00307335       0.00583651       0.00056815 </v>
   <v>      -0.00653758      -0.00027119       0.00062284 </v>
   <v>       0.00361895      -0.00556850       0.00045506 </v>
   <v>       0.00353845       0.00558013      -0.00055334 </v>
   <v>       0.00295282      -0.00580776      -0.00060594 </v>
   <v>      -0.00665809       0.00028101      -0.00049400 </v>
  </varray>
  <varray name="stress" >
   <v>       0.09666735      -0.00622752       0.00010589 </v>
   <v>      -0.00622757       0.09619259       0.00066265 </v>
   <v>       0.00010580       0.00066251       0.20272402 </v>
  </varray>
  <energy>
   <i name="e_fr_energy">    -71.13729422 </i>
   <i name="e_wo_entrp">    -71.13729422 </i>
   <i name="e_0_energy">     -0.00000000 </i>
  </energy>
  <time name="totalsc"> 1094.13 1097.31</time>
  <eigenvalues>
   <array>
    <dimension dim="1">band</dimension>
    <dimension dim="2">kpoint</dimension>
    <dimension dim="3">spin</dimension>
    <field>eigene</field>
    <field>occ</field>
    <set>
     <set comment="spin 1">
      <set comment="kpoint 1">
       <r>  -18.6184    1.0000 </r>
       <r>  -17.1801    1.0000 </r>
       <r>  -17.1801    1.0000 </r>
       <r>  -16.5848    1.0000 </r>
       <r>  -16.5437    1.0000 </r>
       <r>  -16.5436    1.0000 </r>
       <r>   -7.6494    1.0000 </r>
       <r>   -7.6494    1.0000 </r>
       <r>   -4.8006    1.0000 </r>
       <r>   -4.7081    1.0000 </r>
       <r>   -4.5599    1.0000 </r>
       <r>   -4.5599    1.0000 </r>
       <r>   -2.1524    1.0000 </r>
       <r>   -2.1524    1.0000 </r>
       <r>   -2.0242    1.0000 </r>
       <r>   -1.7654    1.0000 </r>
       <r>   -0.8738    1.0000 </r>
       <r>   -0.8738    1.0000 </r>
       <r>   -0.8711    1.0000 </r>
       <r>   -0.3117    1.0000 </r>
       <r>   -0.3117    1.0000 </r>
       <r>    0.1302    1.0000 </r>
       <r>    0.2978    1.0000 </r>
       <r>    0.2978    1.0000 </r>
       <r>    6.3037    0.0000 </r>
       <r>    9.6984    0.0000 </r>
       <r>    9.6984    0.0000 </r>
       <r>    9.9552    0.0000 </r>
       <r>    9.9553    0.0000 </r>
       <r>   11.0247    0.0000 </r>
       <r>   11.8539    0.0000 </r>
       <r>   12.5454    0.0000 </r>
       <r>   13.2353    0.0000 </r>
       <r>   13.2353    0.0000 </r>
       <r>   13.5344    0.0000 </r>
       <r>   13.5344    0.0000 </r>
      </set>
      <set comment="kpoint 2">
       <r>  -18.4540    1.0000 </r>
       <r>  -17.3823    1.0000 </r>
       <r>  -17.1620    1.0000 </r>
       <r>  -16.6043    1.0000 </r>
       <r>  -16.5679    1.0000 </r>
       <r>  -16.5573    1.0000 </r>
       <r>   -7.7200    1.0000 </r>
       <r>   -7.2649    1.0000 </r>
       <r>   -4.8771    1.0000 </r>
       <r>   -4.7916    1.0000 </r>
       <r>   -4.7404    1.0000 </r>
       <r>   -4.2589    1.0000 </r>
       <r>   -2.3584    1.0000 </r>
       <r>   -2.0594    1.0000 </r>
       <r>   -1.9489    1.0000 </r>
       <r>   -1.4816    1.0000 </r>
       <r>   -1.3648    1.0000 </r>
       <r>   -0.9810    1.0000 </r>
       <r>   -0.8868    1.0000 </r>
       <r>   -0.4178    1.0000 </r>
       <r>   -0.3340    1.0000 </r>
       <r>   -0.1101    1.0000 </r>
       <r>    0.3913    1.0000 </r>
       <r>    0.4858    1.0000 </r>
       <r>    7.1524    0.0000 </r>
       <r>    9.5693    0.0000 </r>
       <r>    9.6795    0.0000 </r>
       <r>   10.2088    0.0000 </r>
       <r>   10.3502    0.0000 </r>
       <r>   11.1213    0.0000 </r>
       <r>   11.4869    0.0000 </r>
       <r>   12.1533    0.0000 </r>
       <r>   12.7646    0.0000 </r>
       <r>   13.0699    0.0000 </r>
       <r>   13.3287    0.0000 </r>
       <r>   13.6110    0.0000 </r>
      </set>
      <set comment="kpoint 3">
       <r>  -18.1666    1.0000 </r>
       <r>  -17.7180    1.0000 </r>
       <r>  -17.1424    1.0000 </r>
       <r>  -16.6136    1.0000 </r>
       <r>  -16.5867    1.0000 </r>
       <r>  -16.5742    1.0000 </r>
       <r>   -7.7862    1.0000 </r>
       <r>   -6.7555    1.0000 </r>
       <r>   -5.2609    1.0000 </r>
       <r>   -4.8136    1.0000 </r>
       <r>   -4.7406    1.0000 </r>
       <r>   -3.9701    1.0000 </r>
       <r>   -2.3286    1.0000 </r>
       <r>   -2.2043    1.0000 </r>
       <r>   -1.8938    1.0000 </r>
       <r>   -1.5714    1.0000 </r>
       <r>   -1.4060    1.0000 </r>
       <r>   -1.0916    1.0000 </r>
       <r>   -1.0359    1.0000 </r>
       <r>   -0.4468    1.0000 </r>
       <r>   -0.3922    1.0000 </r>
       <r>   -0.1702    1.0000 </r>
       <r>    0.3689    1.0000 </r>
       <r>    0.6162    1.0000 </r>
       <r>    8.4562    0.0000 </r>
       <r>    9.2434    0.0000 </r>
       <r>   10.0624    0.0000 </r>
       <r>   10.1340    0.0000 </r>
       <r>   10.7323    0.0000 </r>
       <r>   10.8366    0.0000 </r>
       <r>   11.6030    0.0000 </r>
       <r>   11.7934    0.0000 </r>
       <r>   12.2501    0.0000 </r>
       <r>   12.8721    0.0000 </r>
       <r>   13.0427    0.0000 </r>
       <r>   13.1647    0.0000 </r>
      </set>
      <set comment="kpoint 4">
       <r>  -18.4540    1.0000 </r>
       <r>  -17.3823    1.0000 </r>
       <r>  -17.1620    1.0000 </r>
       <r>  -16.6043    1.0000 </r>
       <r>  -16.5679    1.0000 </r>
       <r>  -16.5573    1.0000 </r>
       <r>   -7.7200    1.0000 </r>
       <r>   -7.2649    1.0000 </r>
       <r>   -4.8771    1.0000 </r>
       <r>   -4.7916    1.0000 </r>
       <r>   -4.7404    1.0000 </r>
       <r>   -4.2589    1.0000 </r>
       <r>   -2.3584    1.0000 </r>
       <r>   -2.0594    1.0000 </r>
       <r>   -1.9489    1.0000 </r>
       <r>   -1.4816    1.0000 </r>
       <r>   -1.3648    1.0000 </r>
       <r>   -0.9810    1.0000 </r>
       <r>   -0.8868    1.0000 </r>
       <r>   -0.4178    1.0000 </r>
       <r>   -0.3340    1.0000 </r>
       <r>   -0.1101    1.0000 </r>
       <r>    0.3913    1.0000 </r>
       <r>    0.4858    1.0000 </r>
       <r>    7.1524    0.0000 </r>
       <r>    9.5693    0.0000 </r>
       <r>    9.6795    0.0000 </r>
       <r>   10.2088    0.0000 </r>
       <r>   10.3502    0.0000 </r>
       <r>   11.1213    0.0000 </r>
       <r>   11.4869    0.0000 </r>
       <r>   12.1533    0.0000 </r>
       <r>   12.7646    0.0000 </r>
       <r>   13.0699    0.0000 </r>
       <r>   13.3287    0.0000 </r>
       <r>   13.6110    0.0000 </r>
      </set>
      <set comment="kpoint 5">
       <r>  -18.4540    1.0000 </r>
       <r>  -17.3823    1.0000 </r>
       <r>  -17.1620    1.0000 </r>
       <r>  -16.6043    1.0000 </r>
       <r>  -16.5679    1.0000 </r>
       <r>  -16.5573    1.0000 </r>
       <r>   -7.7200    1.0000 </r>
       <r>   -7.2649    1.0000 </r>
       <r>   -4.8771    1.0000 </r>
       <r>   -4.7917    1.0000 </r>
       <r>   -4.7404    1.0000 </r>
       <r>   -4.2589    1.0000 </r>
       <r>   -2.3584    1.0000 </r>
       <r>   -2.0594    1.0000 </r>
       <r>   -1.9489    1.0000 </r>
       <r>   -1.4816    1.0000 </r>
       <r>   -1.3648    1.0000 </r>
       <r>   -0.9810    1.0000 </r>
       <r>   -0.8868    1.0000 </r>
       <r>   -0.4178    1.0000 </r>
       <r>   -0.3340    1.0000 </r>
       <r>   -0.1101    1.0000 </r>
       <r>    0.3913    1.0000 </r>
       <r>    0.4857    1.0000 </r>
       <r>    7.1524    0.0000 </r>
       <r>    9.5693    0.0000 </r>
       <r>    9.6795    0.0000 </r>
       <r>   10.2088    0.0000 </r>
       <r>   10.3502    0.0000 </r>
       <r>   11.1213    0.0000 </r>
       <r>   11.4869    0.0000 </r>
       <r>   12.1533    0.0000 </r>
       <r>   12.7646    0.0000 </r>
       <r>   13.0699    0.0000 </r>
       <r>   13.3287    0.0000 </r>
       <r>   13.6110    0.0000 </r>
      </set>
      <set comment="kpoint 6">
       <r>  -18.1739    1.0000 </r>
       <r>  -17.6961    1.0000 </r>
       <r>  -17.1650    1.0000 </r>
       <r>  -16.6113    1.0000 </r>
       <r>  -16.5857    1.0000 </r>
       <r>  -16.5691    1.0000 </r>
       <r>   -7.8171    1.0000 </r>
       <r>   -6.6264    1.0000 </r>
       <r>   -5.5221    1.0000 </r>
       <r>   -4.7354    1.0000 </r>
       <r>   -4.6650    1.0000 </r>
       <r>   -3.9697    1.0000 </r>
       <r>   -2.3150    1.0000 </r>
       <r>   -2.1452    1.0000 </r>
       <r>   -1.9597    1.0000 </r>
       <r>   -1.4944    1.0000 </r>
       <r>   -1.4170    1.0000 </r>
       <r>   -1.1966    1.0000 </r>
       <r>   -0.8022    1.0000 </r>
       <r>   -0.7424    1.0000 </r>
       <r>   -0.4241    1.0000 </r>
       <r>   -0.0033    1.0000 </r>
       <r>    0.3430    1.0000 </r>
       <r>    0.6074    1.0000 </r>
       <r>    8.3559    0.0000 </r>
       <r>    9.6544    0.0000 </r>
       <r>    9.7128    0.0000 </r>
       <r>   10.4072    0.0000 </r>
       <r>   10.5537    0.0000 </r>
       <r>   10.9193    0.0000 </r>
       <r>   11.2169    0.0000 </r>
       <r>   11.8315    0.0000 </r>
       <r>   12.6272    0.0000 </r>
       <r>   12.6643    0.0000 </r>
       <r>   13.0173    0.0000 </r>
       <r>   13.2098    0.0000 </r>
      </set>
      <set comment="kpoint 7">
       <r>  -18.1739    1.0000 </r>
       <r>  -17.6961    1.0000 </r>
       <r>  -17.1650    1.0000 </r>
       <r>  -16.6113    1.0000 </r>
       <r>  -16.5857    1.0000 </r>
       <r>  -16.5691    1.0000 </r>
       <r>   -7.8171    1.0000 </r>
       <r>   -6.6264    1.0000 </r>
       <r>   -5.5221    1.0000 </r>
       <r>   -4.7354    1.0000 </r>
       <r>   -4.6650    1.0000 </r>
       <r>   -3.9697    1.0000 </r>
       <r>   -2.3150    1.0000 </r>
       <r>   -2.1452    1.0000 </r>
       <r>   -1.9597    1.0000 </r>
       <r>   -1.4944    1.0000 </r>
       <r>   -1.4170    1.0000 </r>
       <r>   -1.1966    1.0000 </r>
       <r>   -0.8023    1.0000 </r>
       <r>   -0.7424    1.0000 </r>
       <r>   -0.4241    1.0000 </r>
       <r>   -0.0033    1.0000 </r>
       <r>    0.3430    1.0000 </r>
       <r>    0.6074    1.0000 </r>
       <r>    8.3559    0.0000 </r>
       <r>    9.6544    0.0000 </r>
       <r>    9.7127    0.0000 </r>
       <r>   10.4072    0.0000 </r>
       <r>   10.5537    0.0000 </r>
       <r>   10.9193    0.0000 </r>
       <r>   11.2169    0.0000 </r>
       <r>   11.8315    0.0000 </r>
       <r>   12.6272    0.0000 </r>
       <r>   12.6643    0.0000 </r>
       <r>   13.0173    0.0000 </r>
       <r>   13.2098    0.0000 </r>
      </set>
      <set comment="kpoint 8">
       <r>  -18.4540    1.0000 </r>
       <r>  -17.3823    1.0000 </r>
       <r>  -17.1620    1.0000 </r>
       <r>  -16.6043    1.0000 </r>
       <r>  -16.5679    1.0000 </r>
       <r>  -16.5573    1.0000 </r>
       <r>   -7.7199    1.0000 </r>
       <r>   -7.2649    1.0000 </r>
       <r>   -4.8771    1.0000 </r>
       <r>   -4.7917    1.0000 </r>
       <r>   -4.7404    1.0000 </r>
       <r>   -4.2589    1.0000 </r>
       <r>   -2.3584    1.0000 </r>
       <r>   -2.0594    1.0000 </r>
       <r>   -1.9489    1.0000 </r>
       <r>   -1.4816    1.0000 </r>
       <r>   -1.3648    1.0000 </r>
       <r>   -0.9810    1.0000 </r>
       <r>   -0.8868    1.0000 </r>
       <r>   -0.4178    1.0000 </r>
       <r>   -0.3340    1.0000 </r>
       <r>   -0.1101    1.0000 </r>
       <r>    0.3913    1.0000 </r>
       <r>    0.4858    1.0000 </r>
       <r>    7.1524    0.0000 </r>
       <r>    9.5693    0.0000 </r>
       <r>    9.6795    0.0000 </r>
       <r>   10.2088    0.0000 </r>
       <r>   10.3502    0.0000 </r>
       <r>   11.1213    0.0000 </r>
       <r>   11.4869    0.0000 </r>
       <r>   12.1533    0.0000 </r>
       <r>   12.7645    0.0000 </r>
       <r>   13.0699    0.0000 </r>
       <r>   13.3287    0.0000 </r>
       <r>   13.6110    0.0000 </r>
      </set>
      <set comment="kpoint 9">
       <r>  -18.1666    1.0000 </r>
       <r>  -17.7180    1.0000 </r>
       <r>  -17.1424    1.0000 </r>
       <r>  -16.6136    1.0000 </r>
       <r>  -16.5867    1.0000 </r>
       <r>  -16.5743    1.0000 </r>
       <r>   -7.7862    1.0000 </r>
       <r>   -6.7555    1.0000 </r>
       <r>   -5.2609    1.0000 </r>
       <r>   -4.8136    1.0000 </r>
       <r>   -4.7406    1.0000 </r>
       <r>   -3.9701    1.0000 </r>
       <r>   -2.3286    1.0000 </r>
       <r>   -2.2043    1.0000 </r>
       <r>   -1.8938    1.0000 </r>
       <r>   -1.5714    1.0000 </r>
       <r>   -1.4061    1.0000 </r>
       <r>   -1.0916    1.0000 </r>
       <r>   -1.0359    1.0000 </r>
       <r>   -0.4468    1.0000 </r>
       <r>   -0.3923    1.0000 </r>
       <r>   -0.1702    1.0000 </r>
       <r>    0.3690    1.0000 </r>
       <r>    0.6162    1.0000 </r>
       <r>    8.4563    0.0000 </r>
       <r>    9.2434    0.0000 </r>
       <r>   10.0623    0.0000 </r>
       <r>   10.1340    0.0000 </r>
       <r>   10.7323    0.0000 </r>
       <r>   10.8366    0.0000 </r>
       <r>   11.6031    0.0000 </r>
       <r>   11.7934    0.0000 </r>
       <r>   12.2501    0.0000 </r>
       <r>   12.8721    0.0000 </r>
       <r>   13.0427    0.0000 </r>
       <r>   13.1647    0.0000 </r>
      </set>
      <set comment="kpoint 10">
       <r>  -18.1739    1.0000 </r>
       <r>  -17.6961    1.0000 </r>
       <r>  -17.1650    1.0000 </r>
       <r>  -16.6113    1.0000 </r>
       <r>  -16.5857    1.0000 </r>
       <r>  -16.5691    1.0000 </r>
       <r>   -7.8171    1.0000 </r>
       <r>   -6.6264    1.0000 </r>
       <r>   -5.5221    1.0000 </r>
       <r>   -4.7354    1.0000 </r>
       <r>   -4.6650    1.0000 </r>
       <r>   -3.9697    1.0000 </r>
       <r>   -2.3150    1.0000 </r>
       <r>   -2.1452    1.0000 </r>
       <r>   -1.9597    1.0000 </r>
       <r>   -1.4944    1.0000 </r>
       <r>   -1.4170    1.0000 </r>
       <r>   -1.1966    1.0000 </r>
       <r>   -0.8022    1.0000 </r>
       <r>   -0.7424    1.0000 </r>
       <r>   -0.4241    1.0000 </r>
       <r>   -0.0033    1.0000 </r>
       <r>    0.3430    1.0000 </r>
       <r>    0.6074    1.0000 </r>
       <r>    8.3559    0.0000 </r>
       <r>    9.6544    0.0000 </r>
       <r>    9.7127    0.0000 </r>
       <r>   10.4072    0.0000 </r>
       <r>   10.5536    0.0000 </r>
       <r>   10.9193    0.0000 </r>
       <r>   11.2169    0.0000 </r>
       <r>   11.8315    0.0000 </r>
       <r>   12.6272    0.0000 </r>
       <r>   12.6643    0.0000 </r>
       <r>   13.0174    0.0000 </r>
       <r>   13.2098    0.0000 </r>
      </set>
      <set comment="kpoint 11">
       <r>  -18.1666    1.0000 </r>
       <r>  -17.7180    1.0000 </r>
       <r>  -17.1424    1.0000 </r>
       <r>  -16.6136    1.0000 </r>
       <r>  -16.5867    1.0000 </r>
       <r>  -16.5742    1.0000 </r>
       <r>   -7.7862    1.0000 </r>
       <r>   -6.7555    1.0000 </r>
       <r>   -5.2609    1.0000 </r>
       <r>   -4.8136    1.0000 </r>
       <r>   -4.7406    1.0000 </r>
       <r>   -3.9702    1.0000 </r>
       <r>   -2.3286    1.0000 </r>
       <r>   -2.2043    1.0000 </r>
       <r>   -1.8938    1.0000 </r>
       <r>   -1.5714    1.0000 </r>
       <r>   -1.4061    1.0000 </r>
       <r>   -1.0916    1.0000 </r>
       <r>   -1.0359    1.0000 </r>
       <r>   -0.4468    1.0000 </r>
       <r>   -0.3922    1.0000 </r>
       <r>   -0.1702    1.0000 </r>
       <r>    0.3690    1.0000 </r>
       <r>    0.6162    1.0000 </r>
       <r>    8.4563    0.0000 </r>
       <r>    9.2434    0.0000 </r>
       <r>   10.0623    0.0000 </r>
       <r>   10.1339    0.0000 </r>
       <r>   10.7323    0.0000 </r>
       <r>   10.8366    0.0000 </r>
       <r>   11.6031    0.0000 </r>
       <r>   11.7933    0.0000 </r>
       <r>   12.2501    0.0000 </r>
       <r>   12.8721    0.0000 </r>
       <r>   13.0427    0.0000 </r>
       <r>   13.1647    0.0000 </r>
      </set>
      <set comment="kpoint 12">
       <r>  -18.1739    1.0000 </r>
       <r>  -17.6961    1.0000 </r>
       <r>  -17.1650    1.0000 </r>
       <r>  -16.6113    1.0000 </r>
       <r>  -16.5857    1.0000 </r>
       <r>  -16.5691    1.0000 </r>
       <r>   -7.8171    1.0000 </r>
       <r>   -6.6264    1.0000 </r>
       <r>   -5.5221    1.0000 </r>
       <r>   -4.7354    1.0000 </r>
       <r>   -4.6650    1.0000 </r>
       <r>   -3.9697    1.0000 </r>
       <r>   -2.3150    1.0000 </r>
       <r>   -2.1452    1.0000 </r>
       <r>   -1.9597    1.0000 </r>
       <r>   -1.4944    1.0000 </r>
       <r>   -1.4170    1.0000 </r>
       <r>   -1.1966    1.0000 </r>
       <r>   -0.8022    1.0000 </r>
       <r>   -0.7424    1.0000 </r>
       <r>   -0.4241    1.0000 </r>
       <r>   -0.0033    1.0000 </r>
       <r>    0.3430    1.0000 </r>
       <r>    0.6074    1.0000 </r>
       <r>    8.3559    0.0000 </r>
       <r>    9.6544    0.0000 </r>
       <r>    9.7127    0.0000 </r>
       <r>   10.4072    0.0000 </r>
       <r>   10.5536    0.0000 </r>
       <r>   10.9193    0.0000 </r>
       <r>   11.2169    0.0000 </r>
       <r>   11.8315    0.0000 </r>
       <r>   12.6272    0.0000 </r>
       <r>   12.6643    0.0000 </r>
       <r>   13.0174    0.0000 </r>
       <r>   13.2098    0.0000 </r>
      </set>
      <set comment="kpoint 13">
       <r>  -18.4540    1.0000 </r>
       <r>  -17.3823    1.0000 </r>
       <r>  -17.1620    1.0000 </r>
       <r>  -16.6043    1.0000 </r>
       <r>  -16.5679    1.0000 </r>
       <r>  -16.5573    1.0000 </r>
       <r>   -7.7200    1.0000 </r>
       <r>   -7.2649    1.0000 </r>
       <r>   -4.8771    1.0000 </r>
       <r>   -4.7917    1.0000 </r>
       <r>   -4.7404    1.0000 </r>
       <r>   -4.2589    1.0000 </r>
       <r>   -2.3584    1.0000 </r>
       <r>   -2.0594    1.0000 </r>
       <r>   -1.9489    1.0000 </r>
       <r>   -1.4816    1.0000 </r>
       <r>   -1.3648    1.0000 </r>
       <r>   -0.9810    1.0000 </r>
       <r>   -0.8868    1.0000 </r>
       <r>   -0.4178    1.0000 </r>
       <r>   -0.3340    1.0000 </r>
       <r>   -0.1101    1.0000 </r>
       <r>    0.3913    1.0000 </r>
       <r>    0.4857    1.0000 </r>
       <r>    7.1524    0.0000 </r>
       <r>    9.5693    0.0000 </r>
       <r>    9.6795    0.0000 </r>
       <r>   10.2088    0.0000 </r>
       <r>   10.3502    0.0000 </r>
       <r>   11.1213    0.0000 </r>
       <r>   11.4869    0.0000 </r>
       <r>   12.1533    0.0000 </r>
       <r>   12.7646    0.0000 </r>
       <r>   13.0699    0.0000 </r>
       <r>   13.3287    0.0000 </r>
       <r>   13.6110    0.0000 </r>
      </set>
      <set comment="kpoint 14">
       <r>  -18.4540    1.0000 </r>
       <r>  -17.3823    1.0000 </r>
       <r>  -17.1620    1.0000 </r>
       <r>  -16.6043    1.0000 </r>
       <r>  -16.5679    1.0000 </r>
       <r>  -16.5573    1.0000 </r>
       <r>   -7.7199    1.0000 </r>
       <r>   -7.2649    1.0000 </r>
       <r>   -4.8771    1.0000 </r>
       <r>   -4.7917    1.0000 </r>
       <r>   -4.7404    1.0000 </r>
       <r>   -4.2589    1.0000 </r>
       <r>   -2.3584    1.0000 </r>
       <r>   -2.0594    1.0000 </r>
       <r>   -1.9489    1.0000 </r>
       <r>   -1.4816    1.0000 </r>
       <r>   -1.3648    1.0000 </r>
       <r>   -0.9810    1.0000 </r>
       <r>   -0.8868    1.0000 </r>
       <r>   -0.4178    1.0000 </r>
       <r>   -0.3340    1.0000 </r>
       <r>   -0.1101    1.0000 </r>
       <r>    0.3913    1.0000 </r>
       <r>    0.4858    1.0000 </r>
       <r>    7.1524    0.0000 </r>
       <r>    9.5693    0.0000 </r>
       <r>    9.6795    0.0000 </r>
       <r>   10.2088    0.0000 </r>
       <r>   10.3502    0.0000 </r>
       <r>   11.1213    0.0000 </r>
       <r>   11.4869    0.0000 </r>
       <r>   12.1533    0.0000 </r>
       <r>   12.7645    0.0000 </r>
       <r>   13.0699    0.0000 </r>
       <r>   13.3287    0.0000 </r>
       <r>   13.6110    0.0000 </r>
      </set>
      <set comment="kpoint 15">
       <r>  -18.1739    1.0000 </r>
       <r>  -17.6961    1.0000 </r>
       <r>  -17.1650    1.0000 </r>
       <r>  -16.6113    1.0000 </r>
       <r>  -16.5857    1.0000 </r>
       <r>  -16.5691    1.0000 </r>
       <r>   -7.8171    1.0000 </r>
       <r>   -6.6264    1.0000 </r>
       <r>   -5.5221    1.0000 </r>
       <r>   -4.7354    1.0000 </r>
       <r>   -4.6650    1.0000 </r>
       <r>   -3.9697    1.0000 </r>
       <r>   -2.3150    1.0000 </r>
       <r>   -2.1452    1.0000 </r>
       <r>   -1.9597    1.0000 </r>
       <r>   -1.4944    1.0000 </r>
       <r>   -1.4170    1.0000 </r>
       <r>   -1.1966    1.0000 </r>
       <r>   -0.8023    1.0000 </r>
       <r>   -0.7424    1.0000 </r>
       <r>   -0.4241    1.0000 </r>
       <r>   -0.0033    1.0000 </r>
       <r>    0.3430    1.0000 </r>
       <r>    0.6074    1.0000 </r>
       <r>    8.3559    0.0000 </r>
       <r>    9.6544    0.0000 </r>
       <r>    9.7127    0.0000 </r>
       <r>   10.4072    0.0000 </r>
       <r>   10.5537    0.0000 </r>
       <r>   10.9193    0.0000 </r>
       <r>   11.2169    0.0000 </r>
       <r>   11.8315    0.0000 </r>
       <r>   12.6272    0.0000 </r>
       <r>   12.6643    0.0000 </r>
       <r>   13.0173    0.0000 </r>
       <r>   13.2098    0.0000 </r>
      </set>
      <set comment="kpoint 16">
       <r>  -18.1739    1.0000 </r>
       <r>  -17.6961    1.0000 </r>
       <r>  -17.1650    1.0000 </r>
       <r>  -16.6113    1.0000 </r>
       <r>  -16.5857    1.0000 </r>
       <r>  -16.5691    1.0000 </r>
       <r>   -7.8171    1.0000 </r>
       <r>   -6.6264    1.0000 </r>
       <r>   -5.5221    1.0000 </r>
       <r>   -4.7354    1.0000 </r>
       <r>   -4.6650    1.0000 </r>
       <r>   -3.9697    1.0000 </r>
       <r>   -2.3150    1.0000 </r>
       <r>   -2.1452    1.0000 </r>
       <r>   -1.9597    1.0000 </r>
       <r>   -1.4944    1.0000 </r>
       <r>   -1.4170    1.0000 </r>
       <r>   -1.1966    1.0000 </r>
       <r>   -0.8022    1.0000 </r>
       <r>   -0.7424    1.0000 </r>
       <r>   -0.4241    1.0000 </r>
       <r>   -0.0033    1.0000 </r>
       <r>    0.3430    1.0000 </r>
       <r>    0.6074    1.0000 </r>
       <r>    8.3559    0.0000 </r>
       <r>    9.6544    0.0000 </r>
       <r>    9.7128    0.0000 </r>
       <r>   10.4072    0.0000 </r>
       <r>   10.5537    0.0000 </r>
       <r>   10.9193    0.0000 </r>
       <r>   11.2169    0.0000 </r>
       <r>   11.8315    0.0000 </r>
       <r>   12.6272    0.0000 </r>
       <r>   12.6643    0.0000 </r>
       <r>   13.0173    0.0000 </r>
       <r>   13.2098    0.0000 </r>
      </set>
      <set comment="kpoint 17">
       <r>  -18.4194    1.0000 </r>
       <r>  -17.8794    1.0000 </r>
       <r>  -16.6481    1.0000 </r>
       <r>  -16.5776    1.0000 </r>
       <r>  -16.5611    1.0000 </r>
       <r>  -16.5314    1.0000 </r>
       <r>   -8.6155    1.0000 </r>
       <r>   -6.2478    1.0000 </r>
       <r>   -5.1192    1.0000 </r>
       <r>   -4.9188    1.0000 </r>
       <r>   -4.9089    1.0000 </r>
       <r>   -4.0641    1.0000 </r>
       <r>   -2.1792    1.0000 </r>
       <r>   -1.8999    1.0000 </r>
       <r>   -1.8869    1.0000 </r>
       <r>   -1.5023    1.0000 </r>
       <r>   -1.2573    1.0000 </r>
       <r>   -1.0436    1.0000 </r>
       <r>   -1.0147    1.0000 </r>
       <r>   -0.9098    1.0000 </r>
       <r>   -0.4361    1.0000 </r>
       <r>    0.3373    1.0000 </r>
       <r>    0.4411    1.0000 </r>
       <r>    0.5821    1.0000 </r>
       <r>    7.2759    0.0000 </r>
       <r>    9.0902    0.0000 </r>
       <r>    9.4952    0.0000 </r>
       <r>    9.7139    0.0000 </r>
       <r>   10.7530    0.0000 </r>
       <r>   10.8472    0.0000 </r>
       <r>   11.4285    0.0000 </r>
       <r>   12.2471    0.0000 </r>
       <r>   12.4833    0.0000 </r>
       <r>   12.9366    0.0000 </r>
       <r>   13.3870    0.0000 </r>
       <r>   14.0292    0.0000 </r>
      </set>
      <set comment="kpoint 18">
       <r>  -18.2896    1.0000 </r>
       <r>  -17.8185    1.0000 </r>
       <r>  -16.8946    1.0000 </r>
       <r>  -16.5914    1.0000 </r>
       <r>  -16.5688    1.0000 </r>
       <r>  -16.5553    1.0000 </r>
       <r>   -8.2229    1.0000 </r>
       <r>   -6.4071    1.0000 </r>
       <r>   -5.4640    1.0000 </r>
       <r>   -4.8114    1.0000 </r>
       <r>   -4.5598    1.0000 </r>
       <r>   -4.1700    1.0000 </r>
       <r>   -2.3668    1.0000 </r>
       <r>   -2.0740    1.0000 </r>
       <r>   -1.7823    1.0000 </r>
       <r>   -1.6629    1.0000 </r>
       <r>   -1.4081    1.0000 </r>
       <r>   -0.8891    1.0000 </r>
       <r>   -0.8027    1.0000 </r>
       <r>   -0.7005    1.0000 </r>
       <r>   -0.2697    1.0000 </r>
       <r>    0.0212    1.0000 </r>
       <r>    0.2604    1.0000 </r>
       <r>    0.5886    1.0000 </r>
       <r>    7.8631    0.0000 </r>
       <r>    9.4255    0.0000 </r>
       <r>    9.7127    0.0000 </r>
       <r>   10.0076    0.0000 </r>
       <r>   10.5980    0.0000 </r>
       <r>   10.7280    0.0000 </r>
       <r>   11.3000    0.0000 </r>
       <r>   11.6864    0.0000 </r>
       <r>   12.6965    0.0000 </r>
       <r>   12.7416    0.0000 </r>
       <r>   12.9831    0.0000 </r>
       <r>   13.3906    0.0000 </r>
      </set>
      <set comment="kpoint 19">
       <r>  -18.1279    1.0000 </r>
       <r>  -17.7000    1.0000 </r>
       <r>  -17.2176    1.0000 </r>
       <r>  -16.6223    1.0000 </r>
       <r>  -16.5819    1.0000 </r>
       <r>  -16.5663    1.0000 </r>
       <r>   -7.6754    1.0000 </r>
       <r>   -6.6921    1.0000 </r>
       <r>   -5.6903    1.0000 </r>
       <r>   -4.7299    1.0000 </r>
       <r>   -4.3588    1.0000 </r>
       <r>   -4.2624    1.0000 </r>
       <r>   -2.4314    1.0000 </r>
       <r>   -2.3909    1.0000 </r>
       <r>   -1.7586    1.0000 </r>
       <r>   -1.5220    1.0000 </r>
       <r>   -1.3406    1.0000 </r>
       <r>   -0.9596    1.0000 </r>
       <r>   -0.6964    1.0000 </r>
       <r>   -0.5041    1.0000 </r>
       <r>   -0.3335    1.0000 </r>
       <r>   -0.0358    1.0000 </r>
       <r>    0.1068    1.0000 </r>
       <r>    0.4696    1.0000 </r>
       <r>    8.8448    0.0000 </r>
       <r>    9.4195    0.0000 </r>
       <r>    9.9272    0.0000 </r>
       <r>   10.4082    0.0000 </r>
       <r>   10.7713    0.0000 </r>
       <r>   10.8672    0.0000 </r>
       <r>   11.0424    0.0000 </r>
       <r>   11.3607    0.0000 </r>
       <r>   12.0380    0.0000 </r>
       <r>   12.4665    0.0000 </r>
       <r>   12.5129    0.0000 </r>
       <r>   13.2191    0.0000 </r>
      </set>
      <set comment="kpoint 20">
       <r>  -18.2876    1.0000 </r>
       <r>  -17.8239    1.0000 </r>
       <r>  -16.8812    1.0000 </r>
       <r>  -16.5973    1.0000 </r>
       <r>  -16.5776    1.0000 </r>
       <r>  -16.5508    1.0000 </r>
       <r>   -8.2215    1.0000 </r>
       <r>   -6.4080    1.0000 </r>
       <r>   -5.4635    1.0000 </r>
       <r>   -4.8004    1.0000 </r>
       <r>   -4.5527    1.0000 </r>
       <r>   -4.1995    1.0000 </r>
       <r>   -2.3890    1.0000 </r>
       <r>   -2.0781    1.0000 </r>
       <r>   -1.7945    1.0000 </r>
       <r>   -1.5736    1.0000 </r>
       <r>   -1.3501    1.0000 </r>
       <r>   -0.9792    1.0000 </r>
       <r>   -0.8525    1.0000 </r>
       <r>   -0.6903    1.0000 </r>
       <r>   -0.2872    1.0000 </r>
       <r>    0.0731    1.0000 </r>
       <r>    0.3427    1.0000 </r>
       <r>    0.5029    1.0000 </r>
       <r>    7.9103    0.0000 </r>
       <r>    9.2735    0.0000 </r>
       <r>    9.6502    0.0000 </r>
       <r>    9.9660    0.0000 </r>
       <r>   10.6772    0.0000 </r>
       <r>   10.8593    0.0000 </r>
       <r>   11.4748    0.0000 </r>
       <r>   11.7922    0.0000 </r>
       <r>   12.5428    0.0000 </r>
       <r>   12.6703    0.0000 </r>
       <r>   12.8312    0.0000 </r>
       <r>   13.4351    0.0000 </r>
      </set>
      <set comment="kpoint 21">
       <r>  -18.2876    1.0000 </r>
       <r>  -17.8239    1.0000 </r>
       <r>  -16.8812    1.0000 </r>
       <r>  -16.5973    1.0000 </r>
       <r>  -16.5776    1.0000 </r>
       <r>  -16.5508    1.0000 </r>
       <r>   -8.2215    1.0000 </r>
       <r>   -6.4080    1.0000 </r>
       <r>   -5.4635    1.0000 </r>
       <r>   -4.8004    1.0000 </r>
       <r>   -4.5527    1.0000 </r>
       <r>   -4.1995    1.0000 </r>
       <r>   -2.3890    1.0000 </r>
       <r>   -2.0781    1.0000 </r>
       <r>   -1.7945    1.0000 </r>
       <r>   -1.5736    1.0000 </r>
       <r>   -1.3501    1.0000 </r>
       <r>   -0.9792    1.0000 </r>
       <r>   -0.8525    1.0000 </r>
       <r>   -0.6903    1.0000 </r>
       <r>   -0.2872    1.0000 </r>
       <r>    0.0731    1.0000 </r>
       <r>    0.3427    1.0000 </r>
       <r>    0.5029    1.0000 </r>
       <r>    7.9103    0.0000 </r>
       <r>    9.2735    0.0000 </r>
       <r>    9.6501    0.0000 </r>
       <r>    9.9660    0.0000 </r>
       <r>   10.6772    0.0000 </r>
       <r>   10.8593    0.0000 </r>
       <r>   11.4748    0.0000 </r>
       <r>   11.7922    0.0000 </r>
       <r>   12.5428    0.0000 </r>
       <r>   12.6703    0.0000 </r>
       <r>   12.8312    0.0000 </r>
       <r>   13.4351    0.0000 </r>
      </set>
      <set comment="kpoint 22">
       <r>  -18.1256    1.0000 </r>
       <r>  -17.7111    1.0000 </r>
       <r>  -17.2010    1.0000 </r>
       <r>  -16.6183    1.0000 </r>
       <r>  -16.5939    1.0000 </r>
       <r>  -16.5666    1.0000 </r>
       <r>   -7.6830    1.0000 </r>
       <r>   -6.6087    1.0000 </r>
       <r>   -5.8178    1.0000 </r>
       <r>   -4.6887    1.0000 </r>
       <r>   -4.3737    1.0000 </r>
       <r>   -4.2554    1.0000 </r>
       <r>   -2.4671    1.0000 </r>
       <r>   -2.2302    1.0000 </r>
       <r>   -1.9039    1.0000 </r>
       <r>   -1.4867    1.0000 </r>
       <r>   -1.2806    1.0000 </r>
       <r>   -1.0722    1.0000 </r>
       <r>   -0.6823    1.0000 </r>
       <r>   -0.4750    1.0000 </r>
       <r>   -0.2300    1.0000 </r>
       <r>   -0.1048    1.0000 </r>
       <r>    0.1569    1.0000 </r>
       <r>    0.3946    1.0000 </r>
       <r>    8.7319    0.0000 </r>
       <r>    9.6007    0.0000 </r>
       <r>    9.9908    0.0000 </r>
       <r>   10.4242    0.0000 </r>
       <r>   10.5712    0.0000 </r>
       <r>   10.8602    0.0000 </r>
       <r>   10.9946    0.0000 </r>
       <r>   11.6008    0.0000 </r>
       <r>   12.0633    0.0000 </r>
       <r>   12.2588    0.0000 </r>
       <r>   12.6933    0.0000 </r>
       <r>   12.9385    0.0000 </r>
      </set>
      <set comment="kpoint 23">
       <r>  -18.1256    1.0000 </r>
       <r>  -17.7112    1.0000 </r>
       <r>  -17.2010    1.0000 </r>
       <r>  -16.6184    1.0000 </r>
       <r>  -16.5939    1.0000 </r>
       <r>  -16.5666    1.0000 </r>
       <r>   -7.6830    1.0000 </r>
       <r>   -6.6087    1.0000 </r>
       <r>   -5.8178    1.0000 </r>
       <r>   -4.6888    1.0000 </r>
       <r>   -4.3736    1.0000 </r>
       <r>   -4.2554    1.0000 </r>
       <r>   -2.4671    1.0000 </r>
       <r>   -2.2302    1.0000 </r>
       <r>   -1.9039    1.0000 </r>
       <r>   -1.4867    1.0000 </r>
       <r>   -1.2806    1.0000 </r>
       <r>   -1.0722    1.0000 </r>
       <r>   -0.6823    1.0000 </r>
       <r>   -0.4750    1.0000 </r>
       <r>   -0.2300    1.0000 </r>
       <r>   -0.1048    1.0000 </r>
       <r>    0.1569    1.0000 </r>
       <r>    0.3946    1.0000 </r>
       <r>    8.7319    0.0000 </r>
       <r>    9.6007    0.0000 </r>
       <r>    9.9908    0.0000 </r>
       <r>   10.4242    0.0000 </r>
       <r>   10.5712    0.0000 </r>
       <r>   10.8602    0.0000 </r>
       <r>   10.9946    0.0000 </r>
       <r>   11.6008    0.0000 </r>
       <r>   12.0633    0.0000 </r>
       <r>   12.2588    0.0000 </r>
       <r>   12.6933    0.0000 </r>
       <r>   12.9385    0.0000 </r>
      </set>
      <set comment="kpoint 24">
       <r>  -18.2896    1.0000 </r>
       <r>  -17.8185    1.0000 </r>
       <r>  -16.8946    1.0000 </r>
       <r>  -16.5914    1.0000 </r>
       <r>  -16.5688    1.0000 </r>
       <r>  -16.5553    1.0000 </r>
       <r>   -8.2229    1.0000 </r>
       <r>   -6.4071    1.0000 </r>
       <r>   -5.4640    1.0000 </r>
       <r>   -4.8114    1.0000 </r>
       <r>   -4.5598    1.0000 </r>
       <r>   -4.1700    1.0000 </r>
       <r>   -2.3668    1.0000 </r>
       <r>   -2.0740    1.0000 </r>
       <r>   -1.7823    1.0000 </r>
       <r>   -1.6629    1.0000 </r>
       <r>   -1.4081    1.0000 </r>
       <r>   -0.8891    1.0000 </r>
       <r>   -0.8027    1.0000 </r>
       <r>   -0.7005    1.0000 </r>
       <r>   -0.2697    1.0000 </r>
       <r>    0.0213    1.0000 </r>
       <r>    0.2604    1.0000 </r>
       <r>    0.5886    1.0000 </r>
       <r>    7.8631    0.0000 </r>
       <r>    9.4255    0.0000 </r>
       <r>    9.7127    0.0000 </r>
       <r>   10.0076    0.0000 </r>
       <r>   10.5980    0.0000 </r>
       <r>   10.7281    0.0000 </r>
       <r>   11.3000    0.0000 </r>
       <r>   11.6865    0.0000 </r>
       <r>   12.6965    0.0000 </r>
       <r>   12.7416    0.0000 </r>
       <r>   12.9831    0.0000 </r>
       <r>   13.3906    0.0000 </r>
      </set>
      <set comment="kpoint 25">
       <r>  -18.1279    1.0000 </r>
       <r>  -17.7000    1.0000 </r>
       <r>  -17.2176    1.0000 </r>
       <r>  -16.6223    1.0000 </r>
       <r>  -16.5819    1.0000 </r>
       <r>  -16.5663    1.0000 </r>
       <r>   -7.6754    1.0000 </r>
       <r>   -6.6921    1.0000 </r>
       <r>   -5.6903    1.0000 </r>
       <r>   -4.7299    1.0000 </r>
       <r>   -4.3588    1.0000 </r>
       <r>   -4.2624    1.0000 </r>
       <r>   -2.4314    1.0000 </r>
       <r>   -2.3909    1.0000 </r>
       <r>   -1.7586    1.0000 </r>
       <r>   -1.5220    1.0000 </r>
       <r>   -1.3406    1.0000 </r>
       <r>   -0.9596    1.0000 </r>
       <r>   -0.6964    1.0000 </r>
       <r>   -0.5041    1.0000 </r>
       <r>   -0.3335    1.0000 </r>
       <r>   -0.0358    1.0000 </r>
       <r>    0.1068    1.0000 </r>
       <r>    0.4696    1.0000 </r>
       <r>    8.8448    0.0000 </r>
       <r>    9.4195    0.0000 </r>
       <r>    9.9272    0.0000 </r>
       <r>   10.4082    0.0000 </r>
       <r>   10.7713    0.0000 </r>
       <r>   10.8672    0.0000 </r>
       <r>   11.0424    0.0000 </r>
       <r>   11.3607    0.0000 </r>
       <r>   12.0380    0.0000 </r>
       <r>   12.4665    0.0000 </r>
       <r>   12.5129    0.0000 </r>
       <r>   13.2191    0.0000 </r>
      </set>
      <set comment="kpoint 26">
       <r>  -18.1256    1.0000 </r>
       <r>  -17.7111    1.0000 </r>
       <r>  -17.2010    1.0000 </r>
       <r>  -16.6184    1.0000 </r>
       <r>  -16.5939    1.0000 </r>
       <r>  -16.5666    1.0000 </r>
       <r>   -7.6830    1.0000 </r>
       <r>   -6.6087    1.0000 </r>
       <r>   -5.8178    1.0000 </r>
       <r>   -4.6887    1.0000 </r>
       <r>   -4.3737    1.0000 </r>
       <r>   -4.2554    1.0000 </r>
       <r>   -2.4671    1.0000 </r>
       <r>   -2.2302    1.0000 </r>
       <r>   -1.9039    1.0000 </r>
       <r>   -1.4867    1.0000 </r>
       <r>   -1.2806    1.0000 </r>
       <r>   -1.0722    1.0000 </r>
       <r>   -0.6823    1.0000 </r>
       <r>   -0.4750    1.0000 </r>
       <r>   -0.2300    1.0000 </r>
       <r>   -0.1048    1.0000 </r>
       <r>    0.1569    1.0000 </r>
       <r>    0.3946    1.0000 </r>
       <r>    8.7319    0.0000 </r>
       <r>    9.6007    0.0000 </r>
       <r>    9.9908    0.0000 </r>
       <r>   10.4242    0.0000 </r>
       <r>   10.5712    0.0000 </r>
       <r>   10.8602    0.0000 </r>
       <r>   10.9946    0.0000 </r>
       <r>   11.6008    0.0000 </r>
       <r>   12.0633    0.0000 </r>
       <r>   12.2588    0.0000 </r>
       <r>   12.6933    0.0000 </r>
       <r>   12.9385    0.0000 </r>
      </set>
      <set comment="kpoint 27">
       <r>  -18.1279    1.0000 </r>
       <r>  -17.7000    1.0000 </r>
       <r>  -17.2177    1.0000 </r>
       <r>  -16.6223    1.0000 </r>
       <r>  -16.5819    1.0000 </r>
       <r>  -16.5663    1.0000 </r>
       <r>   -7.6754    1.0000 </r>
       <r>   -6.6921    1.0000 </r>
       <r>   -5.6903    1.0000 </r>
       <r>   -4.7299    1.0000 </r>
       <r>   -4.3588    1.0000 </r>
       <r>   -4.2624    1.0000 </r>
       <r>   -2.4314    1.0000 </r>
       <r>   -2.3909    1.0000 </r>
       <r>   -1.7586    1.0000 </r>
       <r>   -1.5220    1.0000 </r>
       <r>   -1.3406    1.0000 </r>
       <r>   -0.9596    1.0000 </r>
       <r>   -0.6964    1.0000 </r>
       <r>   -0.5042    1.0000 </r>
       <r>   -0.3335    1.0000 </r>
       <r>   -0.0358    1.0000 </r>
       <r>    0.1068    1.0000 </r>
       <r>    0.4696    1.0000 </r>
       <r>    8.8448    0.0000 </r>
       <r>    9.4194    0.0000 </r>
       <r>    9.9272    0.0000 </r>
       <r>   10.4082    0.0000 </r>
       <r>   10.7713    0.0000 </r>
       <r>   10.8672    0.0000 </r>
       <r>   11.0424    0.0000 </r>
       <r>   11.3607    0.0000 </r>
       <r>   12.0380    0.0000 </r>
       <r>   12.4666    0.0000 </r>
       <r>   12.5129    0.0000 </r>
       <r>   13.2191    0.0000 </r>
      </set>
      <set comment="kpoint 28">
       <r>  -18.1256    1.0000 </r>
       <r>  -17.7112    1.0000 </r>
       <r>  -17.2010    1.0000 </r>
       <r>  -16.6184    1.0000 </r>
       <r>  -16.5940    1.0000 </r>
       <r>  -16.5666    1.0000 </r>
       <r>   -7.6830    1.0000 </r>
       <r>   -6.6087    1.0000 </r>
       <r>   -5.8178    1.0000 </r>
       <r>   -4.6888    1.0000 </r>
       <r>   -4.3736    1.0000 </r>
       <r>   -4.2554    1.0000 </r>
       <r>   -2.4671    1.0000 </r>
       <r>   -2.2302    1.0000 </r>
       <r>   -1.9039    1.0000 </r>
       <r>   -1.4867    1.0000 </r>
       <r>   -1.2806    1.0000 </r>
       <r>   -1.0722    1.0000 </r>
       <r>   -0.6823    1.0000 </r>
       <r>   -0.4750    1.0000 </r>
       <r>   -0.2300    1.0000 </r>
       <r>   -0.1048    1.0000 </r>
       <r>    0.1569    1.0000 </r>
       <r>    0.3946    1.0000 </r>
       <r>    8.7319    0.0000 </r>
       <r>    9.6007    0.0000 </r>
       <r>    9.9908    0.0000 </r>
       <r>   10.4242    0.0000 </r>
       <r>   10.5712    0.0000 </r>
       <r>   10.8602    0.0000 </r>
       <r>   10.9946    0.0000 </r>
       <r>   11.6008    0.0000 </r>
       <r>   12.0633    0.0000 </r>
       <r>   12.2588    0.0000 </r>
       <r>   12.6933    0.0000 </r>
       <r>   12.9385    0.0000 </r>
      </set>
      <set comment="kpoint 29">
       <r>  -18.2896    1.0000 </r>
       <r>  -17.8185    1.0000 </r>
       <r>  -16.8946    1.0000 </r>
       <r>  -16.5914    1.0000 </r>
       <r>  -16.5688    1.0000 </r>
       <r>  -16.5553    1.0000 </r>
       <r>   -8.2229    1.0000 </r>
       <r>   -6.4071    1.0000 </r>
       <r>   -5.4640    1.0000 </r>
       <r>   -4.8114    1.0000 </r>
       <r>   -4.5598    1.0000 </r>
       <r>   -4.1700    1.0000 </r>
       <r>   -2.3668    1.0000 </r>
       <r>   -2.0740    1.0000 </r>
       <r>   -1.7823    1.0000 </r>
       <r>   -1.6629    1.0000 </r>
       <r>   -1.4081    1.0000 </r>
       <r>   -0.8891    1.0000 </r>
       <r>   -0.8027    1.0000 </r>
       <r>   -0.7004    1.0000 </r>
       <r>   -0.2697    1.0000 </r>
       <r>    0.0212    1.0000 </r>
       <r>    0.2604    1.0000 </r>
       <r>    0.5886    1.0000 </r>
       <r>    7.8631    0.0000 </r>
       <r>    9.4255    0.0000 </r>
       <r>    9.7127    0.0000 </r>
       <r>   10.0076    0.0000 </r>
       <r>   10.5980    0.0000 </r>
       <r>   10.7280    0.0000 </r>
       <r>   11.3000    0.0000 </r>
       <r>   11.6865    0.0000 </r>
       <r>   12.6965    0.0000 </r>
       <r>   12.7416    0.0000 </r>
       <r>   12.9831    0.0000 </r>
       <r>   13.3906    0.0000 </r>
      </set>
      <set comment="kpoint 30">
       <r>  -18.2876    1.0000 </r>
       <r>  -17.8239    1.0000 </r>
       <r>  -16.8812    1.0000 </r>
       <r>  -16.5973    1.0000 </r>
       <r>  -16.5776    1.0000 </r>
       <r>  -16.5508    1.0000 </r>
       <r>   -8.2215    1.0000 </r>
       <r>   -6.4081    1.0000 </r>
       <r>   -5.4635    1.0000 </r>
       <r>   -4.8004    1.0000 </r>
       <r>   -4.5527    1.0000 </r>
       <r>   -4.1995    1.0000 </r>
       <r>   -2.3890    1.0000 </r>
       <r>   -2.0781    1.0000 </r>
       <r>   -1.7945    1.0000 </r>
       <r>   -1.5736    1.0000 </r>
       <r>   -1.3501    1.0000 </r>
       <r>   -0.9792    1.0000 </r>
       <r>   -0.8525    1.0000 </r>
       <r>   -0.6903    1.0000 </r>
       <r>   -0.2872    1.0000 </r>
       <r>    0.0731    1.0000 </r>
       <r>    0.3427    1.0000 </r>
       <r>    0.5029    1.0000 </r>
       <r>    7.9103    0.0000 </r>
       <r>    9.2735    0.0000 </r>
       <r>    9.6502    0.0000 </r>
       <r>    9.9660    0.0000 </r>
       <r>   10.6772    0.0000 </r>
       <r>   10.8593    0.0000 </r>
       <r>   11.4748    0.0000 </r>
       <r>   11.7922    0.0000 </r>
       <r>   12.5428    0.0000 </r>
       <r>   12.6703    0.0000 </r>
       <r>   12.8312    0.0000 </r>
       <r>   13.4351    0.0000 </r>
      </set>
      <set comment="kpoint 31">
       <r>  -18.1256    1.0000 </r>
       <r>  -17.7111    1.0000 </r>
       <r>  -17.2010    1.0000 </r>
       <r>  -16.6184    1.0000 </r>
       <r>  -16.5940    1.0000 </r>
       <r>  -16.5666    1.0000 </r>
       <r>   -7.6830    1.0000 </r>
       <r>   -6.6087    1.0000 </r>
       <r>   -5.8178    1.0000 </r>
       <r>   -4.6888    1.0000 </r>
       <r>   -4.3737    1.0000 </r>
       <r>   -4.2554    1.0000 </r>
       <r>   -2.4671    1.0000 </r>
       <r>   -2.2302    1.0000 </r>
       <r>   -1.9039    1.0000 </r>
       <r>   -1.4867    1.0000 </r>
       <r>   -1.2806    1.0000 </r>
       <r>   -1.0722    1.0000 </r>
       <r>   -0.6823    1.0000 </r>
       <r>   -0.4750    1.0000 </r>
       <r>   -0.2300    1.0000 </r>
       <r>   -0.1048    1.0000 </r>
       <r>    0.1569    1.0000 </r>
       <r>    0.3946    1.0000 </r>
       <r>    8.7319    0.0000 </r>
       <r>    9.6007    0.0000 </r>
       <r>    9.9908    0.0000 </r>
       <r>   10.4242    0.0000 </r>
       <r>   10.5712    0.0000 </r>
       <r>   10.8602    0.0000 </r>
       <r>   10.9946    0.0000 </r>
       <r>   11.6008    0.0000 </r>
       <r>   12.0633    0.0000 </r>
       <r>   12.2588    0.0000 </r>
       <r>   12.6933    0.0000 </r>
       <r>   12.9385    0.0000 </r>
      </set>
      <set comment="kpoint 32">
       <r>  -18.1256    1.0000 </r>
       <r>  -17.7112    1.0000 </r>
       <r>  -17.2010    1.0000 </r>
       <r>  -16.6184    1.0000 </r>
       <r>  -16.5940    1.0000 </r>
       <r>  -16.5666    1.0000 </r>
       <r>   -7.6830    1.0000 </r>
       <r>   -6.6087    1.0000 </r>
       <r>   -5.8178    1.0000 </r>
       <r>   -4.6888    1.0000 </r>
       <r>   -4.3736    1.0000 </r>
       <r>   -4.2554    1.0000 </r>
       <r>   -2.4671    1.0000 </r>
       <r>   -2.2302    1.0000 </r>
       <r>   -1.9039    1.0000 </r>
       <r>   -1.4867    1.0000 </r>
       <r>   -1.2806    1.0000 </r>
       <r>   -1.0722    1.0000 </r>
       <r>   -0.6823    1.0000 </r>
       <r>   -0.4750    1.0000 </r>
       <r>   -0.2300    1.0000 </r>
       <r>   -0.1048    1.0000 </r>
       <r>    0.1569    1.0000 </r>
       <r>    0.3946    1.0000 </r>
       <r>    8.7319    0.0000 </r>
       <r>    9.6007    0.0000 </r>
       <r>    9.9908    0.0000 </r>
       <r>   10.4242    0.0000 </r>
       <r>   10.5712    0.0000 </r>
       <r>   10.8602    0.0000 </r>
       <r>   10.9946    0.0000 </r>
       <r>   11.6008    0.0000 </r>
       <r>   12.0633    0.0000 </r>
       <r>   12.2588    0.0000 </r>
       <r>   12.6933    0.0000 </r>
       <r>   12.9385    0.0000 </r>
      </set>
      <set comment="kpoint 33">
       <r>  -18.4194    1.0000 </r>
       <r>  -17.8794    1.0000 </r>
       <r>  -16.6481    1.0000 </r>
       <r>  -16.5776    1.0000 </r>
       <r>  -16.5611    1.0000 </r>
       <r>  -16.5314    1.0000 </r>
       <r>   -8.6155    1.0000 </r>
       <r>   -6.2478    1.0000 </r>
       <r>   -5.1192    1.0000 </r>
       <r>   -4.9188    1.0000 </r>
       <r>   -4.9089    1.0000 </r>
       <r>   -4.0641    1.0000 </r>
       <r>   -2.1792    1.0000 </r>
       <r>   -1.8999    1.0000 </r>
       <r>   -1.8869    1.0000 </r>
       <r>   -1.5023    1.0000 </r>
       <r>   -1.2573    1.0000 </r>
       <r>   -1.0436    1.0000 </r>
       <r>   -1.0147    1.0000 </r>
       <r>   -0.9098    1.0000 </r>
       <r>   -0.4361    1.0000 </r>
       <r>    0.3373    1.0000 </r>
       <r>    0.4411    1.0000 </r>
       <r>    0.5821    1.0000 </r>
       <r>    7.2759    0.0000 </r>
       <r>    9.0902    0.0000 </r>
       <r>    9.4952    0.0000 </r>
       <r>    9.7139    0.0000 </r>
       <r>   10.7530    0.0000 </r>
       <r>   10.8472    0.0000 </r>
       <r>   11.4285    0.0000 </r>
[...]
       <r>   -2.0497    1.0000 </r>
       <r>   -1.3546    1.0000 </r>
       <r>   -1.3460    1.0000 </r>
       <r>   -1.3037    1.0000 </r>
       <r>   -1.0054    1.0000 </r>
       <r>   -0.6290    1.0000 </r>
       <r>   -0.5843    1.0000 </r>
       <r>    0.1803    1.0000 </r>
       <r>    0.2334    1.0000 </r>
       <r>    0.6294    1.0000 </r>
       <r>    9.0842    0.0000 </r>
       <r>    9.2468    0.0000 </r>
       <r>    9.6983    0.0000 </r>
       <r>   10.5191    0.0000 </r>
       <r>   10.8303    0.0000 </r>
       <r>   10.8457    0.0000 </r>
       <r>   11.2163    0.0000 </r>
       <r>   11.2961    0.0000 </r>
       <r>   12.5880    0.0000 </r>
       <r>   12.6542    0.0000 </r>
       <r>   13.0257    0.0000 </r>
       <r>   13.1910    0.0000 </r>
      </set>
      <set comment="kpoint 118">
       <r>  -17.9544    1.0000 </r>
       <r>  -17.9220    1.0000 </r>
       <r>  -17.1718    1.0000 </r>
       <r>  -16.6112    1.0000 </r>
       <r>  -16.5804    1.0000 </r>
       <r>  -16.5791    1.0000 </r>
       <r>   -7.8466    1.0000 </r>
       <r>   -6.1189    1.0000 </r>
       <r>   -6.0352    1.0000 </r>
       <r>   -4.6861    1.0000 </r>
       <r>   -4.6806    1.0000 </r>
       <r>   -3.8834    1.0000 </r>
       <r>   -2.2269    1.0000 </r>
       <r>   -2.2167    1.0000 </r>
       <r>   -2.0510    1.0000 </r>
       <r>   -1.3476    1.0000 </r>
       <r>   -1.3427    1.0000 </r>
       <r>   -1.3113    1.0000 </r>
       <r>   -1.0092    1.0000 </r>
       <r>   -0.6188    1.0000 </r>
       <r>   -0.5960    1.0000 </r>
       <r>    0.1943    1.0000 </r>
       <r>    0.2209    1.0000 </r>
       <r>    0.6297    1.0000 </r>
       <r>    9.1274    0.0000 </r>
       <r>    9.2116    0.0000 </r>
       <r>    9.6941    0.0000 </r>
       <r>   10.5265    0.0000 </r>
       <r>   10.8329    0.0000 </r>
       <r>   10.8432    0.0000 </r>
       <r>   11.2302    0.0000 </r>
       <r>   11.2714    0.0000 </r>
       <r>   12.5890    0.0000 </r>
       <r>   12.6519    0.0000 </r>
       <r>   13.0264    0.0000 </r>
       <r>   13.2116    0.0000 </r>
      </set>
      <set comment="kpoint 119">
       <r>  -17.9382    1.0000 </r>
       <r>  -17.9382    1.0000 </r>
       <r>  -17.1719    1.0000 </r>
       <r>  -16.6112    1.0000 </r>
       <r>  -16.5798    1.0000 </r>
       <r>  -16.5798    1.0000 </r>
       <r>   -7.8468    1.0000 </r>
       <r>   -6.0771    1.0000 </r>
       <r>   -6.0771    1.0000 </r>
       <r>   -4.6832    1.0000 </r>
       <r>   -4.6832    1.0000 </r>
       <r>   -3.8830    1.0000 </r>
       <r>   -2.2217    1.0000 </r>
       <r>   -2.2217    1.0000 </r>
       <r>   -2.0515    1.0000 </r>
       <r>   -1.3432    1.0000 </r>
       <r>   -1.3432    1.0000 </r>
       <r>   -1.3143    1.0000 </r>
       <r>   -1.0106    1.0000 </r>
       <r>   -0.6076    1.0000 </r>
       <r>   -0.6076    1.0000 </r>
       <r>    0.2078    1.0000 </r>
       <r>    0.2078    1.0000 </r>
       <r>    0.6297    1.0000 </r>
       <r>    9.1708    0.0000 </r>
       <r>    9.1708    0.0000 </r>
       <r>    9.6929    0.0000 </r>
       <r>   10.5290    0.0000 </r>
       <r>   10.8381    0.0000 </r>
       <r>   10.8381    0.0000 </r>
       <r>   11.2489    0.0000 </r>
       <r>   11.2489    0.0000 </r>
       <r>   12.5893    0.0000 </r>
       <r>   12.6511    0.0000 </r>
       <r>   13.0267    0.0000 </r>
       <r>   13.2283    0.0000 </r>
      </set>
     </set>
    </set>
   </array>
  </eigenvalues>
  <separator name="orbital magnetization" >
   <v name="MAGDIPOLOUT">      0.00000000      0.00000000      0.00000000</v>
  </separator>
  <dos>
   <i name="efermi">      1.06470390 </i>
   <total>
    <array>
     <dimension dim="1">gridpoints</dimension>
     <dimension dim="2">spin</dimension>
     <field>energy</field>
     <field>total</field>
     <field>integrated</field>
     <set>
      <set comment="spin 1">
       <r>   -20.2508     0.0000     0.0000 </r>
       <r>   -20.1311     0.0000     0.0000 </r>
       <r>   -20.0114     0.0000     0.0000 </r>
       <r>   -19.8917     0.0000     0.0000 </r>
       <r>   -19.7720     0.0000     0.0000 </r>
       <r>   -19.6523     0.0000     0.0000 </r>
       <r>   -19.5326     0.0000     0.0000 </r>
       <r>   -19.4129     0.0000     0.0000 </r>
       <r>   -19.2932     0.0000     0.0000 </r>
       <r>   -19.1735     0.0000     0.0000 </r>
       <r>   -19.0538     0.0000     0.0000 </r>
       <r>   -18.9340     0.0000     0.0000 </r>
       <r>   -18.8143     0.0010     0.0001 </r>
       <r>   -18.6946     0.0487     0.0059 </r>
       <r>   -18.5749     0.3057     0.0425 </r>
       <r>   -18.4552     1.2709     0.1947 </r>
       <r>   -18.3355     2.4270     0.4852 </r>
       <r>   -18.2158     4.0969     0.9756 </r>
       <r>   -18.0961     5.9993     1.6938 </r>
       <r>   -17.9764     2.5612     2.0004 </r>
       <r>   -17.8567     1.8794     2.2254 </r>
       <r>   -17.7370     5.6075     2.8966 </r>
       <r>   -17.6173     5.7789     3.5884 </r>
       <r>   -17.4975     1.0937     3.7193 </r>
       <r>   -17.3778     1.0623     3.8465 </r>
       <r>   -17.2581     2.8433     4.1869 </r>
       <r>   -17.1384     7.0119     5.0263 </r>
       <r>   -17.0187     3.2377     5.4138 </r>
       <r>   -16.8990     1.8525     5.6356 </r>
       <r>   -16.7793     2.3082     5.9119 </r>
       <r>   -16.6596     7.8760     6.8547 </r>
       <r>   -16.5399    28.8306    10.3060 </r>
       <r>   -16.4202    13.4517    11.9163 </r>
       <r>   -16.3005     0.6962    11.9996 </r>
       <r>   -16.1808     0.0032    12.0000 </r>
       <r>   -16.0610     0.0000    12.0000 </r>
       <r>   -15.9413     0.0000    12.0000 </r>
       <r>   -15.8216     0.0000    12.0000 </r>
       <r>   -15.7019     0.0000    12.0000 </r>
       <r>   -15.5822     0.0000    12.0000 </r>
       <r>   -15.4625     0.0000    12.0000 </r>
       <r>   -15.3428     0.0000    12.0000 </r>
       <r>   -15.2231     0.0000    12.0000 </r>
       <r>   -15.1034     0.0000    12.0000 </r>
       <r>   -14.9837     0.0000    12.0000 </r>
       <r>   -14.8640     0.0000    12.0000 </r>
       <r>   -14.7443     0.0000    12.0000 </r>
       <r>   -14.6245     0.0000    12.0000 </r>
       <r>   -14.5048     0.0000    12.0000 </r>
       <r>   -14.3851     0.0000    12.0000 </r>
       <r>   -14.2654     0.0000    12.0000 </r>
       <r>   -14.1457     0.0000    12.0000 </r>
       <r>   -14.0260     0.0000    12.0000 </r>
       <r>   -13.9063     0.0000    12.0000 </r>
       <r>   -13.7866     0.0000    12.0000 </r>
       <r>   -13.6669     0.0000    12.0000 </r>
       <r>   -13.5472     0.0000    12.0000 </r>
       <r>   -13.4275     0.0000    12.0000 </r>
       <r>   -13.3078     0.0000    12.0000 </r>
       <r>   -13.1881     0.0000    12.0000 </r>
       <r>   -13.0683     0.0000    12.0000 </r>
       <r>   -12.9486     0.0000    12.0000 </r>
       <r>   -12.8289     0.0000    12.0000 </r>
       <r>   -12.7092     0.0000    12.0000 </r>
       <r>   -12.5895     0.0000    12.0000 </r>
       <r>   -12.4698     0.0000    12.0000 </r>
       <r>   -12.3501     0.0000    12.0000 </r>
       <r>   -12.2304     0.0000    12.0000 </r>
       <r>   -12.1107     0.0000    12.0000 </r>
       <r>   -11.9910     0.0000    12.0000 </r>
       <r>   -11.8713     0.0000    12.0000 </r>
       <r>   -11.7516     0.0000    12.0000 </r>
       <r>   -11.6318     0.0000    12.0000 </r>
       <r>   -11.5121     0.0000    12.0000 </r>
       <r>   -11.3924     0.0000    12.0000 </r>
       <r>   -11.2727     0.0000    12.0000 </r>
       <r>   -11.1530     0.0000    12.0000 </r>
       <r>   -11.0333     0.0000    12.0000 </r>
       <r>   -10.9136     0.0000    12.0000 </r>
       <r>   -10.7939     0.0000    12.0000 </r>
       <r>   -10.6742     0.0000    12.0000 </r>
       <r>   -10.5545     0.0000    12.0000 </r>
       <r>   -10.4348     0.0000    12.0000 </r>
       <r>   -10.3151     0.0000    12.0000 </r>
       <r>   -10.1953     0.0000    12.0000 </r>
       <r>   -10.0756     0.0000    12.0000 </r>
       <r>    -9.9559     0.0000    12.0000 </r>
       <r>    -9.8362     0.0000    12.0000 </r>
       <r>    -9.7165     0.0000    12.0000 </r>
       <r>    -9.5968     0.0000    12.0000 </r>
       <r>    -9.4771     0.0000    12.0000 </r>
       <r>    -9.3574     0.0000    12.0000 </r>
       <r>    -9.2377     0.0000    12.0000 </r>
       <r>    -9.1180     0.0000    12.0000 </r>
       <r>    -8.9983     0.0000    12.0000 </r>
       <r>    -8.8786     0.0001    12.0000 </r>
       <r>    -8.7588     0.0148    12.0018 </r>
       <r>    -8.6391     0.2422    12.0308 </r>
       <r>    -8.5194     0.3786    12.0761 </r>
       <r>    -8.3997     0.0850    12.0863 </r>
       <r>    -8.2800     0.8398    12.1868 </r>
       <r>    -8.1603     2.5165    12.4880 </r>
       <r>    -8.0406     0.7766    12.5810 </r>
       <r>    -7.9209     0.2043    12.6054 </r>
       <r>    -7.8012     2.0286    12.8483 </r>
       <r>    -7.6815     5.5897    13.5174 </r>
       <r>    -7.5618     3.9839    13.9943 </r>
       <r>    -7.4421     0.4046    14.0428 </r>
       <r>    -7.3223     0.4261    14.0938 </r>
       <r>    -7.2026     1.2581    14.2444 </r>
       <r>    -7.0829     0.3845    14.2904 </r>
       <r>    -6.9632     0.0123    14.2919 </r>
       <r>    -6.8435     0.1472    14.3095 </r>
       <r>    -6.7238     1.6281    14.5044 </r>
       <r>    -6.6041     4.6256    15.0581 </r>
       <r>    -6.4844     3.3597    15.4603 </r>
       <r>    -6.3647     2.7086    15.7846 </r>
       <r>    -6.2450     1.4181    15.9543 </r>
       <r>    -6.1253     0.3527    15.9965 </r>
       <r>    -6.0056     0.0454    16.0020 </r>
       <r>    -5.8859     0.6914    16.0847 </r>
       <r>    -5.7661     2.7949    16.4193 </r>
       <r>    -5.6464     2.2744    16.6916 </r>
       <r>    -5.5267     2.2354    16.9592 </r>
       <r>    -5.4070     3.5474    17.3838 </r>
       <r>    -5.2873     1.3192    17.5417 </r>
       <r>    -5.1676     0.7699    17.6339 </r>
       <r>    -5.0479     0.5710    17.7022 </r>
       <r>    -4.9282     1.4507    17.8759 </r>
       <r>    -4.8085     6.6067    18.6668 </r>
       <r>    -4.6888    11.3888    20.0301 </r>
       <r>    -4.5691     7.3291    20.9075 </r>
       <r>    -4.4494     3.7223    21.3531 </r>
       <r>    -4.3296     5.3185    21.9897 </r>
       <r>    -4.2099     8.1657    22.9672 </r>
       <r>    -4.0902     4.7124    23.5313 </r>
       <r>    -3.9705     2.2657    23.8026 </r>
       <r>    -3.8508     1.5039    23.9826 </r>
       <r>    -3.7311     0.1443    23.9999 </r>
       <r>    -3.6114     0.0012    24.0000 </r>
       <r>    -3.4917     0.0000    24.0000 </r>
       <r>    -3.3720     0.0000    24.0000 </r>
       <r>    -3.2523     0.0000    24.0000 </r>
       <r>    -3.1326     0.0000    24.0000 </r>
       <r>    -3.0129     0.0000    24.0000 </r>
       <r>    -2.8931     0.0000    24.0000 </r>
       <r>    -2.7734     0.0000    24.0000 </r>
       <r>    -2.6537     0.0196    24.0023 </r>
       <r>    -2.5340     0.9757    24.1191 </r>
       <r>    -2.4143     6.2790    24.8708 </r>
       <r>    -2.2946     9.1341    25.9642 </r>
       <r>    -2.1749     7.0022    26.8024 </r>
       <r>    -2.0552     6.8982    27.6282 </r>
       <r>    -1.9355     7.1999    28.4901 </r>
       <r>    -1.8158     7.4785    29.3853 </r>
       <r>    -1.6961     5.4407    30.0366 </r>
       <r>    -1.5764     4.8813    30.6209 </r>
       <r>    -1.4566     9.8664    31.8020 </r>
       <r>    -1.3369    10.6272    33.0742 </r>
       <r>    -1.2172     7.1529    33.9305 </r>
       <r>    -1.0975     4.8191    34.5073 </r>
       <r>    -0.9778     7.8707    35.4495 </r>
       <r>    -0.8581     9.1902    36.5497 </r>
       <r>    -0.7384     9.2610    37.6583 </r>
       <r>    -0.6187     8.2954    38.6513 </r>
       <r>    -0.4990     5.1728    39.2706 </r>
       <r>    -0.3793     8.8003    40.3240 </r>
       <r>    -0.2596     8.9204    41.3919 </r>
       <r>    -0.1399     7.4555    42.2844 </r>
       <r>    -0.0202     7.1742    43.1432 </r>
       <r>     0.0996     6.8451    43.9626 </r>
       <r>     0.2193     5.8337    44.6609 </r>
       <r>     0.3390     6.6021    45.4512 </r>
       <r>     0.4587     9.7024    46.6127 </r>
       <r>     0.5784     7.2747    47.4835 </r>
       <r>     0.6981     3.8048    47.9390 </r>
       <r>     0.8178     0.5027    47.9992 </r>
       <r>     0.9375     0.0069    48.0000 </r>
       <r>     1.0572     0.0000    48.0000 </r>
       <r>     1.1769     0.0000    48.0000 </r>
       <r>     1.2966     0.0000    48.0000 </r>
       <r>     1.4163     0.0000    48.0000 </r>
       <r>     1.5361     0.0000    48.0000 </r>
       <r>     1.6558     0.0000    48.0000 </r>
       <r>     1.7755     0.0000    48.0000 </r>
       <r>     1.8952     0.0000    48.0000 </r>
       <r>     2.0149     0.0000    48.0000 </r>
       <r>     2.1346     0.0000    48.0000 </r>
       <r>     2.2543     0.0000    48.0000 </r>
       <r>     2.3740     0.0000    48.0000 </r>
       <r>     2.4937     0.0000    48.0000 </r>
       <r>     2.6134     0.0000    48.0000 </r>
       <r>     2.7331     0.0000    48.0000 </r>
       <r>     2.8528     0.0000    48.0000 </r>
       <r>     2.9726     0.0000    48.0000 </r>
       <r>     3.0923     0.0000    48.0000 </r>
       <r>     3.2120     0.0000    48.0000 </r>
       <r>     3.3317     0.0000    48.0000 </r>
       <r>     3.4514     0.0000    48.0000 </r>
       <r>     3.5711     0.0000    48.0000 </r>
       <r>     3.6908     0.0000    48.0000 </r>
       <r>     3.8105     0.0000    48.0000 </r>
       <r>     3.9302     0.0000    48.0000 </r>
       <r>     4.0499     0.0000    48.0000 </r>
       <r>     4.1696     0.0000    48.0000 </r>
       <r>     4.2893     0.0000    48.0000 </r>
       <r>     4.4091     0.0000    48.0000 </r>
       <r>     4.5288     0.0000    48.0000 </r>
       <r>     4.6485     0.0000    48.0000 </r>
       <r>     4.7682     0.0000    48.0000 </r>
       <r>     4.8879     0.0000    48.0000 </r>
       <r>     5.0076     0.0000    48.0000 </r>
       <r>     5.1273     0.0000    48.0000 </r>
       <r>     5.2470     0.0000    48.0000 </r>
       <r>     5.3667     0.0000    48.0000 </r>
       <r>     5.4864     0.0000    48.0000 </r>
       <r>     5.6061     0.0000    48.0000 </r>
       <r>     5.7258     0.0000    48.0000 </r>
       <r>     5.8455     0.0000    48.0000 </r>
       <r>     5.9653     0.0000    48.0000 </r>
       <r>     6.0850     0.0003    48.0000 </r>
       <r>     6.2047     0.0277    48.0034 </r>
       <r>     6.3244     0.1860    48.0256 </r>
       <r>     6.4441     0.1258    48.0407 </r>
       <r>     6.5638     0.0082    48.0417 </r>
       <r>     6.6835     0.0000    48.0417 </r>
       <r>     6.8032     0.0000    48.0417 </r>
       <r>     6.9229     0.0012    48.0418 </r>
       <r>     7.0426     0.1250    48.0568 </r>
       <r>     7.1623     1.0723    48.1851 </r>
       <r>     7.2820     1.1925    48.3279 </r>
       <r>     7.4018     0.3670    48.3718 </r>
       <r>     7.5215     0.0264    48.3750 </r>
       <r>     7.6412     0.0021    48.3752 </r>
       <r>     7.7609     0.1889    48.3978 </r>
       <r>     7.8806     1.7610    48.6087 </r>
       <r>     8.0003     1.9581    48.8431 </r>
       <r>     8.1200     0.2643    48.8747 </r>
       <r>     8.2397     0.1086    48.8877 </r>
       <r>     8.3594     1.0694    49.0157 </r>
       <r>     8.4791     1.4834    49.1933 </r>
       <r>     8.5988     0.5758    49.2622 </r>
       <r>     8.7185     1.7506    49.4718 </r>
       <r>     8.8383     3.0143    49.8326 </r>
       <r>     8.9580     1.3024    49.9885 </r>
       <r>     9.0777     0.4098    50.0376 </r>
       <r>     9.1974     0.9033    50.1457 </r>
       <r>     9.3171     2.1843    50.4072 </r>
       <r>     9.4368     3.0801    50.7759 </r>
       <r>     9.5565     4.5038    51.3150 </r>
       <r>     9.6762     8.6260    52.3477 </r>
       <r>     9.7959     6.4466    53.1194 </r>
       <r>     9.9156     3.1598    53.4976 </r>
       <r>    10.0353     6.7946    54.3110 </r>
       <r>    10.1550     3.8986    54.7777 </r>
       <r>    10.2748     2.3091    55.0541 </r>
       <r>    10.3945     4.6620    55.6122 </r>
       <r>    10.5142     6.7068    56.4150 </r>
       <r>    10.6339     6.5597    57.2003 </r>
       <r>    10.7536     6.4173    57.9685 </r>
       <r>    10.8733     8.7313    59.0137 </r>
       <r>    10.9930     7.9420    59.9644 </r>
       <r>    11.1127     4.9955    60.5624 </r>
       <r>    11.2324     3.0920    60.9325 </r>
       <r>    11.3521     3.2986    61.3274 </r>
       <r>    11.4718     3.8687    61.7905 </r>
       <r>    11.5915     4.7110    62.3545 </r>
       <r>    11.7112     4.4636    62.8888 </r>
       <r>    11.8310     3.9207    63.3581 </r>
       <r>    11.9507     2.5265    63.6606 </r>
       <r>    12.0704     3.6468    64.0971 </r>
       <r>    12.1901     4.6393    64.6525 </r>
       <r>    12.3098     4.3744    65.1762 </r>
       <r>    12.4295     2.4407    65.4683 </r>
       <r>    12.5492     4.6517    66.0252 </r>
       <r>    12.6689     7.8154    66.9607 </r>
       <r>    12.7886     9.1373    68.0546 </r>
       <r>    12.9083     5.8643    68.7566 </r>
       <r>    13.0280     6.6808    69.5563 </r>
       <r>    13.1477     4.8376    70.1354 </r>
       <r>    13.2675     4.4147    70.6639 </r>
       <r>    13.3872     4.2255    71.1697 </r>
       <r>    13.5069     3.3729    71.5735 </r>
       <r>    13.6266     1.9292    71.8044 </r>
       <r>    13.7463     0.8785    71.9096 </r>
       <r>    13.8660     0.0662    71.9175 </r>
       <r>    13.9857     0.1804    71.9391 </r>
       <r>    14.1054     0.4109    71.9883 </r>
       <r>    14.2251     0.0960    71.9998 </r>
       <r>    14.3448     0.0019    72.0000 </r>
       <r>    14.4645     0.0000    72.0000 </r>
       <r>    14.5842     0.0000    72.0000 </r>
       <r>    14.7040     0.0000    72.0000 </r>
       <r>    14.8237     0.0000    72.0000 </r>
       <r>    14.9434     0.0000    72.0000 </r>
       <r>    15.0631     0.0000    72.0000 </r>
       <r>    15.1828     0.0000    72.0000 </r>
       <r>    15.3025     0.0000    72.0000 </r>
       <r>    15.4222     0.0000    72.0000 </r>
       <r>    15.5419     0.0000    72.0000 </r>
       <r>    15.6616     0.0000    72.0000 </r>
      </set>
     </set>
    </array>
   </total>
  </dos>
 </calculation>
 <structure name="finalpos" >
  <crystal>
   <varray name="basis" >
    <v>       5.02189789       0.00000000       0.00000000 </v>
    <v>      -2.51094844       4.34909098       0.00000000 </v>
    <v>       0.00000000       0.00000000       5.51192941 </v>
   </varray>
   <i name="volume">    120.38434609 </i>
   <varray name="rec_basis" >
    <v>       0.19912790       0.11496653       0.00000000 </v>
    <v>      -0.00000000       0.22993311       0.00000000 </v>
    <v>       0.00000000       0.00000000       0.18142467 </v>
   </varray>
  </crystal>
  <varray name="positions" >
   <v>       0.00000000       0.47634315       0.66666700 </v>
   <v>       0.52365685       0.52365685       0.00000000 </v>
   <v>       0.47634315       0.00000000       0.33333300 </v>
   <v>       0.15890378       0.74400316       0.46134773 </v>
   <v>       0.25599684       0.41490062       0.79468073 </v>
   <v>       0.58509938       0.84109622       0.12801473 </v>
   <v>       0.74400316       0.15890378       0.53865227 </v>
   <v>       0.41490062       0.25599684       0.20531927 </v>
   <v>       0.84109622       0.58509938       0.87198527 </v>
  </varray>
 </structure>
</modeling>
