<?xml version="1.0" encoding="ISO-8859-1"?>
<modeling>
 <generator>
  <i name="program" type="string">vasp </i>
  <i name="version" type="string">5.2.2  </i>
  <i name="subversion" type="string">15Apr09 complex  parallel </i>
  <i name="platform" type="string">unknown </i>
  <i name="date" type="string">2012 01 31 </i>
  <i name="time" type="string">14:39:01 </i>
 </generator>
 <incar>
  <i type="string" name="SYSTEM"> Al</i>
  <i type="int" name="ISTART">     1</i>
  <i type="string" name="PREC">accurate</i>
  <i type="logical" name="ADDGRID"> F  </i>
  <i type="int" name="ISPIN">     1</i>
  <i type="int" name="ICHARG">     1</i>
  <i type="int" name="IBRION">     2</i>
  <i name="EDIFF">      0.00000010</i>
  <i name="EDIFFG">      0.00000010</i>
  <i type="int" name="NSW">     5</i>
  <i type="int" name="ISIF">     2</i>
  <i name="ENCUT">    550.00000000</i>
  <i name="POTIM">      0.10000000</i>
  <i type="string" name="LREAL"> AUTO</i>
  <i type="int" name="ISMEAR">     2</i>
  <i name="SIGMA">      0.10000000</i>
  <i type="logical" name="LWAVE"> F  </i>
  <i type="logical" name="LPEAD"> F  </i>
  <i type="logical" name="LCALCPOL"> F  </i>
  <i type="logical" name="LCALCEPS"> F  </i>
  <v name="EFIELD_PEAD">      0.00000000      0.00000000      0.00000000</v>
  <i type="int" name="VOSKOWN">     1</i>
  <i type="logical" name="LEFG"> F  </i>
 </incar>
 <kpoints>
  <generation param="Gamma">
   <v type="int" name="divisions">      20       20       20 </v>
   <v name="usershift">      0.00000000       0.00000000       0.00000000 </v>
   <v name="genvec1">      0.05000000       0.00000000       0.00000000 </v>
   <v name="genvec2">      0.00000000       0.05000000       0.00000000 </v>
   <v name="genvec3">      0.00000000       0.00000000       0.05000000 </v>
   <v name="shift">      0.00000000       0.00000000       0.00000000 </v>
  </generation>
  <varray name="kpointlist" >
   <v>       0.00000000       0.00000000       0.00000000 </v>
   <v>       0.05000000       0.00000000       0.00000000 </v>
   <v>       0.10000000       0.00000000       0.00000000 </v>
   <v>       0.15000000       0.00000000       0.00000000 </v>
   <v>       0.20000000       0.00000000       0.00000000 </v>
   <v>       0.25000000       0.00000000       0.00000000 </v>
   <v>       0.30000000       0.00000000       0.00000000 </v>
   <v>       0.35000000       0.00000000       0.00000000 </v>
   <v>       0.40000000       0.00000000       0.00000000 </v>
   <v>       0.45000000       0.00000000       0.00000000 </v>
   <v>       0.50000000       0.00000000       0.00000000 </v>
   <v>       0.05000000       0.05000000       0.00000000 </v>
   <v>       0.10000000       0.05000000       0.00000000 </v>
   <v>       0.15000000       0.05000000       0.00000000 </v>
   <v>       0.20000000       0.05000000       0.00000000 </v>
   <v>       0.25000000       0.05000000       0.00000000 </v>
   <v>       0.30000000       0.05000000       0.00000000 </v>
   <v>       0.35000000       0.05000000       0.00000000 </v>
   <v>       0.40000000       0.05000000       0.00000000 </v>
   <v>       0.45000000       0.05000000       0.00000000 </v>
   <v>       0.50000000       0.05000000       0.00000000 </v>
   <v>       0.10000000       0.10000000       0.00000000 </v>
   <v>       0.15000000       0.10000000       0.00000000 </v>
   <v>       0.20000000       0.10000000       0.00000000 </v>
   <v>       0.25000000       0.10000000       0.00000000 </v>
   <v>       0.30000000       0.10000000       0.00000000 </v>
   <v>       0.35000000       0.10000000       0.00000000 </v>
   <v>       0.40000000       0.10000000       0.00000000 </v>
   <v>       0.45000000       0.10000000       0.00000000 </v>
   <v>       0.50000000       0.10000000       0.00000000 </v>
   <v>       0.15000000       0.15000000       0.00000000 </v>
   <v>       0.20000000       0.15000000       0.00000000 </v>
   <v>       0.25000000       0.15000000       0.00000000 </v>
   <v>       0.30000000       0.15000000       0.00000000 </v>
   <v>       0.35000000       0.15000000       0.00000000 </v>
   <v>       0.40000000       0.15000000       0.00000000 </v>
   <v>       0.45000000       0.15000000       0.00000000 </v>
   <v>       0.50000000       0.15000000       0.00000000 </v>
   <v>       0.20000000       0.20000000       0.00000000 </v>
   <v>       0.25000000       0.20000000       0.00000000 </v>
   <v>       0.30000000       0.20000000       0.00000000 </v>
   <v>       0.35000000       0.20000000       0.00000000 </v>
   <v>       0.40000000       0.20000000       0.00000000 </v>
   <v>       0.45000000       0.20000000       0.00000000 </v>
   <v>       0.50000000       0.20000000       0.00000000 </v>
   <v>       0.25000000       0.25000000       0.00000000 </v>
   <v>       0.30000000       0.25000000       0.00000000 </v>
   <v>       0.35000000       0.25000000       0.00000000 </v>
   <v>       0.40000000       0.25000000       0.00000000 </v>
   <v>       0.45000000       0.25000000       0.00000000 </v>
   <v>       0.50000000       0.25000000       0.00000000 </v>
   <v>       0.30000000       0.30000000       0.00000000 </v>
   <v>       0.35000000       0.30000000       0.00000000 </v>
   <v>       0.40000000       0.30000000       0.00000000 </v>
   <v>       0.45000000       0.30000000       0.00000000 </v>
   <v>       0.50000000       0.30000000       0.00000000 </v>
   <v>       0.35000000       0.35000000       0.00000000 </v>
   <v>       0.40000000       0.35000000       0.00000000 </v>
   <v>       0.45000000       0.35000000       0.00000000 </v>
   <v>       0.50000000       0.35000000       0.00000000 </v>
   <v>       0.40000000       0.40000000       0.00000000 </v>
   <v>       0.45000000       0.40000000       0.00000000 </v>
   <v>       0.50000000       0.40000000       0.00000000 </v>
   <v>       0.45000000       0.45000000       0.00000000 </v>
   <v>       0.50000000       0.45000000       0.00000000 </v>
   <v>       0.50000000       0.50000000       0.00000000 </v>
   <v>       0.00000000       0.00000000       0.05000000 </v>
   <v>       0.05000000       0.00000000       0.05000000 </v>
   <v>       0.10000000       0.00000000       0.05000000 </v>
   <v>       0.15000000       0.00000000       0.05000000 </v>
   <v>       0.20000000       0.00000000       0.05000000 </v>
   <v>       0.25000000       0.00000000       0.05000000 </v>
   <v>       0.30000000       0.00000000       0.05000000 </v>
   <v>       0.35000000       0.00000000       0.05000000 </v>
   <v>       0.40000000       0.00000000       0.05000000 </v>
   <v>       0.45000000       0.00000000       0.05000000 </v>
   <v>       0.50000000       0.00000000       0.05000000 </v>
   <v>       0.05000000       0.05000000       0.05000000 </v>
   <v>       0.10000000       0.05000000       0.05000000 </v>
   <v>       0.15000000       0.05000000       0.05000000 </v>
   <v>       0.20000000       0.05000000       0.05000000 </v>
   <v>       0.25000000       0.05000000       0.05000000 </v>
   <v>       0.30000000       0.05000000       0.05000000 </v>
   <v>       0.35000000       0.05000000       0.05000000 </v>
   <v>       0.40000000       0.05000000       0.05000000 </v>
   <v>       0.45000000       0.05000000       0.05000000 </v>
   <v>       0.50000000       0.05000000       0.05000000 </v>
   <v>       0.10000000       0.10000000       0.05000000 </v>
   <v>       0.15000000       0.10000000       0.05000000 </v>
   <v>       0.20000000       0.10000000       0.05000000 </v>
   <v>       0.25000000       0.10000000       0.05000000 </v>
   <v>       0.30000000       0.10000000       0.05000000 </v>
   <v>       0.35000000       0.10000000       0.05000000 </v>
   <v>       0.40000000       0.10000000       0.05000000 </v>
   <v>       0.45000000       0.10000000       0.05000000 </v>
   <v>       0.50000000       0.10000000       0.05000000 </v>
   <v>       0.15000000       0.15000000       0.05000000 </v>
   <v>       0.20000000       0.15000000       0.05000000 </v>
   <v>       0.25000000       0.15000000       0.05000000 </v>
   <v>       0.30000000       0.15000000       0.05000000 </v>
   <v>       0.35000000       0.15000000       0.05000000 </v>
   <v>       0.40000000       0.15000000       0.05000000 </v>
   <v>       0.45000000       0.15000000       0.05000000 </v>
   <v>       0.50000000       0.15000000       0.05000000 </v>
   <v>       0.20000000       0.20000000       0.05000000 </v>
   <v>       0.25000000       0.20000000       0.05000000 </v>
   <v>       0.30000000       0.20000000       0.05000000 </v>
   <v>       0.35000000       0.20000000       0.05000000 </v>
   <v>       0.40000000       0.20000000       0.05000000 </v>
   <v>       0.45000000       0.20000000       0.05000000 </v>
   <v>       0.50000000       0.20000000       0.05000000 </v>
   <v>       0.25000000       0.25000000       0.05000000 </v>
   <v>       0.30000000       0.25000000       0.05000000 </v>
   <v>       0.35000000       0.25000000       0.05000000 </v>
   <v>       0.40000000       0.25000000       0.05000000 </v>
   <v>       0.45000000       0.25000000       0.05000000 </v>
   <v>       0.50000000       0.25000000       0.05000000 </v>
   <v>       0.30000000       0.30000000       0.05000000 </v>
   <v>       0.35000000       0.30000000       0.05000000 </v>
   <v>       0.40000000       0.30000000       0.05000000 </v>
   <v>       0.45000000       0.30000000       0.05000000 </v>
   <v>       0.50000000       0.30000000       0.05000000 </v>
   <v>       0.35000000       0.35000000       0.05000000 </v>
   <v>       0.40000000       0.35000000       0.05000000 </v>
   <v>       0.45000000       0.35000000       0.05000000 </v>
   <v>       0.50000000       0.35000000       0.05000000 </v>
   <v>       0.40000000       0.40000000       0.05000000 </v>
   <v>       0.45000000       0.40000000       0.05000000 </v>
   <v>       0.50000000       0.40000000       0.05000000 </v>
   <v>       0.45000000       0.45000000       0.05000000 </v>
   <v>       0.50000000       0.45000000       0.05000000 </v>
   <v>       0.50000000       0.50000000       0.05000000 </v>
   <v>       0.00000000       0.00000000       0.10000000 </v>
   <v>       0.05000000       0.00000000       0.10000000 </v>
   <v>       0.10000000       0.00000000       0.10000000 </v>
   <v>       0.15000000       0.00000000       0.10000000 </v>
   <v>       0.20000000       0.00000000       0.10000000 </v>
   <v>       0.25000000       0.00000000       0.10000000 </v>
   <v>       0.30000000       0.00000000       0.10000000 </v>
   <v>       0.35000000       0.00000000       0.10000000 </v>
   <v>       0.40000000       0.00000000       0.10000000 </v>
   <v>       0.45000000       0.00000000       0.10000000 </v>
   <v>       0.50000000       0.00000000       0.10000000 </v>
   <v>       0.05000000       0.05000000       0.10000000 </v>
   <v>       0.10000000       0.05000000       0.10000000 </v>
   <v>       0.15000000       0.05000000       0.10000000 </v>
   <v>       0.20000000       0.05000000       0.10000000 </v>
   <v>       0.25000000       0.05000000       0.10000000 </v>
   <v>       0.30000000       0.05000000       0.10000000 </v>
   <v>       0.35000000       0.05000000       0.10000000 </v>
   <v>       0.40000000       0.05000000       0.10000000 </v>
   <v>       0.45000000       0.05000000       0.10000000 </v>
   <v>       0.50000000       0.05000000       0.10000000 </v>
   <v>       0.10000000       0.10000000       0.10000000 </v>
   <v>       0.15000000       0.10000000       0.10000000 </v>
   <v>       0.20000000       0.10000000       0.10000000 </v>
   <v>       0.25000000       0.10000000       0.10000000 </v>
   <v>       0.30000000       0.10000000       0.10000000 </v>
   <v>       0.35000000       0.10000000       0.10000000 </v>
   <v>       0.40000000       0.10000000       0.10000000 </v>
   <v>       0.45000000       0.10000000       0.10000000 </v>
   <v>       0.50000000       0.10000000       0.10000000 </v>
   <v>       0.15000000       0.15000000       0.10000000 </v>
   <v>       0.20000000       0.15000000       0.10000000 </v>
   <v>       0.25000000       0.15000000       0.10000000 </v>
   <v>       0.30000000       0.15000000       0.10000000 </v>
   <v>       0.35000000       0.15000000       0.10000000 </v>
   <v>       0.40000000       0.15000000       0.10000000 </v>
   <v>       0.45000000       0.15000000       0.10000000 </v>
   <v>       0.50000000       0.15000000       0.10000000 </v>
   <v>       0.20000000       0.20000000       0.10000000 </v>
   <v>       0.25000000       0.20000000       0.10000000 </v>
   <v>       0.30000000       0.20000000       0.10000000 </v>
   <v>       0.35000000       0.20000000       0.10000000 </v>
   <v>       0.40000000       0.20000000       0.10000000 </v>
   <v>       0.45000000       0.20000000       0.10000000 </v>
   <v>       0.50000000       0.20000000       0.10000000 </v>
   <v>       0.25000000       0.25000000       0.10000000 </v>
   <v>       0.30000000       0.25000000       0.10000000 </v>
   <v>       0.35000000       0.25000000       0.10000000 </v>
   <v>       0.40000000       0.25000000       0.10000000 </v>
   <v>       0.45000000       0.25000000       0.10000000 </v>
   <v>       0.50000000       0.25000000       0.10000000 </v>
   <v>       0.30000000       0.30000000       0.10000000 </v>
   <v>       0.35000000       0.30000000       0.10000000 </v>
   <v>       0.40000000       0.30000000       0.10000000 </v>
   <v>       0.45000000       0.30000000       0.10000000 </v>
   <v>       0.50000000       0.30000000       0.10000000 </v>
   <v>       0.35000000       0.35000000       0.10000000 </v>
   <v>       0.40000000       0.35000000       0.10000000 </v>
   <v>       0.45000000       0.35000000       0.10000000 </v>
   <v>       0.50000000       0.35000000       0.10000000 </v>
   <v>       0.40000000       0.40000000       0.10000000 </v>
   <v>       0.45000000       0.40000000       0.10000000 </v>
   <v>       0.50000000       0.40000000       0.10000000 </v>
   <v>       0.45000000       0.45000000       0.10000000 </v>
   <v>       0.50000000       0.45000000       0.10000000 </v>
   <v>       0.50000000       0.50000000       0.10000000 </v>
   <v>       0.00000000       0.00000000       0.15000000 </v>
   <v>       0.05000000       0.00000000       0.15000000 </v>
   <v>       0.10000000       0.00000000       0.15000000 </v>
   <v>       0.15000000       0.00000000       0.15000000 </v>
   <v>       0.20000000       0.00000000       0.15000000 </v>
   <v>       0.25000000       0.00000000       0.15000000 </v>
   <v>       0.30000000       0.00000000       0.15000000 </v>
   <v>       0.35000000       0.00000000       0.15000000 </v>
   <v>       0.40000000       0.00000000       0.15000000 </v>
   <v>       0.45000000       0.00000000       0.15000000 </v>
   <v>       0.50000000       0.00000000       0.15000000 </v>
   <v>       0.05000000       0.05000000       0.15000000 </v>
   <v>       0.10000000       0.05000000       0.15000000 </v>
   <v>       0.15000000       0.05000000       0.15000000 </v>
   <v>       0.20000000       0.05000000       0.15000000 </v>
   <v>       0.25000000       0.05000000       0.15000000 </v>
   <v>       0.30000000       0.05000000       0.15000000 </v>
   <v>       0.35000000       0.05000000       0.15000000 </v>
   <v>       0.40000000       0.05000000       0.15000000 </v>
   <v>       0.45000000       0.05000000       0.15000000 </v>
   <v>       0.50000000       0.05000000       0.15000000 </v>
   <v>       0.10000000       0.10000000       0.15000000 </v>
   <v>       0.15000000       0.10000000       0.15000000 </v>
   <v>       0.20000000       0.10000000       0.15000000 </v>
   <v>       0.25000000       0.10000000       0.15000000 </v>
   <v>       0.30000000       0.10000000       0.15000000 </v>
   <v>       0.35000000       0.10000000       0.15000000 </v>
   <v>       0.40000000       0.10000000       0.15000000 </v>
   <v>       0.45000000       0.10000000       0.15000000 </v>
   <v>       0.50000000       0.10000000       0.15000000 </v>
   <v>       0.15000000       0.15000000       0.15000000 </v>
   <v>       0.20000000       0.15000000       0.15000000 </v>
   <v>       0.25000000       0.15000000       0.15000000 </v>
   <v>       0.30000000       0.15000000       0.15000000 </v>
   <v>       0.35000000       0.15000000       0.15000000 </v>
   <v>       0.40000000       0.15000000       0.15000000 </v>
   <v>       0.45000000       0.15000000       0.15000000 </v>
   <v>       0.50000000       0.15000000       0.15000000 </v>
   <v>       0.20000000       0.20000000       0.15000000 </v>
   <v>       0.25000000       0.20000000       0.15000000 </v>
   <v>       0.30000000       0.20000000       0.15000000 </v>
   <v>       0.35000000       0.20000000       0.15000000 </v>
   <v>       0.40000000       0.20000000       0.15000000 </v>
   <v>       0.45000000       0.20000000       0.15000000 </v>
   <v>       0.50000000       0.20000000       0.15000000 </v>
   <v>       0.25000000       0.25000000       0.15000000 </v>
   <v>       0.30000000       0.25000000       0.15000000 </v>
   <v>       0.35000000       0.25000000       0.15000000 </v>
   <v>       0.40000000       0.25000000       0.15000000 </v>
   <v>       0.45000000       0.25000000       0.15000000 </v>
   <v>       0.50000000       0.25000000       0.15000000 </v>
   <v>       0.30000000       0.30000000       0.15000000 </v>
   <v>       0.35000000       0.30000000       0.15000000 </v>
   <v>       0.40000000       0.30000000       0.15000000 </v>
   <v>       0.45000000       0.30000000       0.15000000 </v>
   <v>       0.50000000       0.30000000       0.15000000 </v>
   <v>       0.35000000       0.35000000       0.15000000 </v>
   <v>       0.40000000       0.35000000       0.15000000 </v>
   <v>       0.45000000       0.35000000       0.15000000 </v>
   <v>       0.50000000       0.35000000       0.15000000 </v>
   <v>       0.40000000       0.40000000       0.15000000 </v>
   <v>       0.45000000       0.40000000       0.15000000 </v>
   <v>       0.50000000       0.40000000       0.15000000 </v>
   <v>       0.45000000       0.45000000       0.15000000 </v>
   <v>       0.50000000       0.45000000       0.15000000 </v>
   <v>       0.50000000       0.50000000       0.15000000 </v>
   <v>       0.00000000       0.00000000       0.20000000 </v>
   <v>       0.05000000       0.00000000       0.20000000 </v>
   <v>       0.10000000       0.00000000       0.20000000 </v>
   <v>       0.15000000       0.00000000       0.20000000 </v>
   <v>       0.20000000       0.00000000       0.20000000 </v>
   <v>       0.25000000       0.00000000       0.20000000 </v>
   <v>       0.30000000       0.00000000       0.20000000 </v>
   <v>       0.35000000       0.00000000       0.20000000 </v>
   <v>       0.40000000       0.00000000       0.20000000 </v>
   <v>       0.45000000       0.00000000       0.20000000 </v>
   <v>       0.50000000       0.00000000       0.20000000 </v>
   <v>       0.05000000       0.05000000       0.20000000 </v>
   <v>       0.10000000       0.05000000       0.20000000 </v>
   <v>       0.15000000       0.05000000       0.20000000 </v>
   <v>       0.20000000       0.05000000       0.20000000 </v>
   <v>       0.25000000       0.05000000       0.20000000 </v>
   <v>       0.30000000       0.05000000       0.20000000 </v>
   <v>       0.35000000       0.05000000       0.20000000 </v>
   <v>       0.40000000       0.05000000       0.20000000 </v>
   <v>       0.45000000       0.05000000       0.20000000 </v>
   <v>       0.50000000       0.05000000       0.20000000 </v>
   <v>       0.10000000       0.10000000       0.20000000 </v>
   <v>       0.15000000       0.10000000       0.20000000 </v>
   <v>       0.20000000       0.10000000       0.20000000 </v>
   <v>       0.25000000       0.10000000       0.20000000 </v>
   <v>       0.30000000       0.10000000       0.20000000 </v>
   <v>       0.35000000       0.10000000       0.20000000 </v>
   <v>       0.40000000       0.10000000       0.20000000 </v>
   <v>       0.45000000       0.10000000       0.20000000 </v>
   <v>       0.50000000       0.10000000       0.20000000 </v>
   <v>       0.15000000       0.15000000       0.20000000 </v>
   <v>       0.20000000       0.15000000       0.20000000 </v>
   <v>       0.25000000       0.15000000       0.20000000 </v>
   <v>       0.30000000       0.15000000       0.20000000 </v>
   <v>       0.35000000       0.15000000       0.20000000 </v>
   <v>       0.40000000       0.15000000       0.20000000 </v>
   <v>       0.45000000       0.15000000       0.20000000 </v>
   <v>       0.50000000       0.15000000       0.20000000 </v>
   <v>       0.20000000       0.20000000       0.20000000 </v>
   <v>       0.25000000       0.20000000       0.20000000 </v>
   <v>       0.30000000       0.20000000       0.20000000 </v>
   <v>       0.35000000       0.20000000       0.20000000 </v>
   <v>       0.40000000       0.20000000       0.20000000 </v>
   <v>       0.45000000       0.20000000       0.20000000 </v>
   <v>       0.50000000       0.20000000       0.20000000 </v>
   <v>       0.25000000       0.25000000       0.20000000 </v>
   <v>       0.30000000       0.25000000       0.20000000 </v>
   <v>       0.35000000       0.25000000       0.20000000 </v>
   <v>       0.40000000       0.25000000       0.20000000 </v>
   <v>       0.45000000       0.25000000       0.20000000 </v>
   <v>       0.50000000       0.25000000       0.20000000 </v>
   <v>       0.30000000       0.30000000       0.20000000 </v>
   <v>       0.35000000       0.30000000       0.20000000 </v>
   <v>       0.40000000       0.30000000       0.20000000 </v>
   <v>       0.45000000       0.30000000       0.20000000 </v>
   <v>       0.50000000       0.30000000       0.20000000 </v>
   <v>       0.35000000       0.35000000       0.20000000 </v>
   <v>       0.40000000       0.35000000       0.20000000 </v>
   <v>       0.45000000       0.35000000       0.20000000 </v>
   <v>       0.50000000       0.35000000       0.20000000 </v>
   <v>       0.40000000       0.40000000       0.20000000 </v>
   <v>       0.45000000       0.40000000       0.20000000 </v>
   <v>       0.50000000       0.40000000       0.20000000 </v>
   <v>       0.45000000       0.45000000       0.20000000 </v>
   <v>       0.50000000       0.45000000       0.20000000 </v>
   <v>       0.50000000       0.50000000       0.20000000 </v>
   <v>       0.00000000       0.00000000       0.25000000 </v>
   <v>       0.05000000       0.00000000       0.25000000 </v>
   <v>       0.10000000       0.00000000       0.25000000 </v>
   <v>       0.15000000       0.00000000       0.25000000 </v>
   <v>       0.20000000       0.00000000       0.25000000 </v>
   <v>       0.25000000       0.00000000       0.25000000 </v>
   <v>       0.30000000       0.00000000       0.25000000 </v>
   <v>       0.35000000       0.00000000       0.25000000 </v>
   <v>       0.40000000       0.00000000       0.25000000 </v>
   <v>       0.45000000       0.00000000       0.25000000 </v>
   <v>       0.50000000       0.00000000       0.25000000 </v>
   <v>       0.05000000       0.05000000       0.25000000 </v>
   <v>       0.10000000       0.05000000       0.25000000 </v>
   <v>       0.15000000       0.05000000       0.25000000 </v>
   <v>       0.20000000       0.05000000       0.25000000 </v>
   <v>       0.25000000       0.05000000       0.25000000 </v>
   <v>       0.30000000       0.05000000       0.25000000 </v>
   <v>       0.35000000       0.05000000       0.25000000 </v>
   <v>       0.40000000       0.05000000       0.25000000 </v>
   <v>       0.45000000       0.05000000       0.25000000 </v>
   <v>       0.50000000       0.05000000       0.25000000 </v>
   <v>       0.10000000       0.10000000       0.25000000 </v>
   <v>       0.15000000       0.10000000       0.25000000 </v>
   <v>       0.20000000       0.10000000       0.25000000 </v>
   <v>       0.25000000       0.10000000       0.25000000 </v>
   <v>       0.30000000       0.10000000       0.25000000 </v>
   <v>       0.35000000       0.10000000       0.25000000 </v>
   <v>       0.40000000       0.10000000       0.25000000 </v>
   <v>       0.45000000       0.10000000       0.25000000 </v>
   <v>       0.50000000       0.10000000       0.25000000 </v>
   <v>       0.15000000       0.15000000       0.25000000 </v>
   <v>       0.20000000       0.15000000       0.25000000 </v>
   <v>       0.25000000       0.15000000       0.25000000 </v>
   <v>       0.30000000       0.15000000       0.25000000 </v>
   <v>       0.35000000       0.15000000       0.25000000 </v>
   <v>       0.40000000       0.15000000       0.25000000 </v>
   <v>       0.45000000       0.15000000       0.25000000 </v>
   <v>       0.50000000       0.15000000       0.25000000 </v>
   <v>       0.20000000       0.20000000       0.25000000 </v>
   <v>       0.25000000       0.20000000       0.25000000 </v>
   <v>       0.30000000       0.20000000       0.25000000 </v>
   <v>       0.35000000       0.20000000       0.25000000 </v>
   <v>       0.40000000       0.20000000       0.25000000 </v>
   <v>       0.45000000       0.20000000       0.25000000 </v>
   <v>       0.50000000       0.20000000       0.25000000 </v>
   <v>       0.25000000       0.25000000       0.25000000 </v>
   <v>       0.30000000       0.25000000       0.25000000 </v>
   <v>       0.35000000       0.25000000       0.25000000 </v>
   <v>       0.40000000       0.25000000       0.25000000 </v>
   <v>       0.45000000       0.25000000       0.25000000 </v>
   <v>       0.50000000       0.25000000       0.25000000 </v>
   <v>       0.30000000       0.30000000       0.25000000 </v>
   <v>       0.35000000       0.30000000       0.25000000 </v>
   <v>       0.40000000       0.30000000       0.25000000 </v>
   <v>       0.45000000       0.30000000       0.25000000 </v>
   <v>       0.50000000       0.30000000       0.25000000 </v>
   <v>       0.35000000       0.35000000       0.25000000 </v>
   <v>       0.40000000       0.35000000       0.25000000 </v>
   <v>       0.45000000       0.35000000       0.25000000 </v>
   <v>       0.50000000       0.35000000       0.25000000 </v>
   <v>       0.40000000       0.40000000       0.25000000 </v>
   <v>       0.45000000       0.40000000       0.25000000 </v>
   <v>       0.50000000       0.40000000       0.25000000 </v>
   <v>       0.45000000       0.45000000       0.25000000 </v>
   <v>       0.50000000       0.45000000       0.25000000 </v>
   <v>       0.50000000       0.50000000       0.25000000 </v>
   <v>       0.00000000       0.00000000       0.30000000 </v>
   <v>       0.05000000       0.00000000       0.30000000 </v>
   <v>       0.10000000       0.00000000       0.30000000 </v>
   <v>       0.15000000       0.00000000       0.30000000 </v>
   <v>       0.20000000       0.00000000       0.30000000 </v>
   <v>       0.25000000       0.00000000       0.30000000 </v>
   <v>       0.30000000       0.00000000       0.30000000 </v>
   <v>       0.35000000       0.00000000       0.30000000 </v>
   <v>       0.40000000       0.00000000       0.30000000 </v>
   <v>       0.45000000       0.00000000       0.30000000 </v>
   <v>       0.50000000       0.00000000       0.30000000 </v>
   <v>       0.05000000       0.05000000       0.30000000 </v>
   <v>       0.10000000       0.05000000       0.30000000 </v>
   <v>       0.15000000       0.05000000       0.30000000 </v>
   <v>       0.20000000       0.05000000       0.30000000 </v>
   <v>       0.25000000       0.05000000       0.30000000 </v>
   <v>       0.30000000       0.05000000       0.30000000 </v>
   <v>       0.35000000       0.05000000       0.30000000 </v>
   <v>       0.40000000       0.05000000       0.30000000 </v>
   <v>       0.45000000       0.05000000       0.30000000 </v>
   <v>       0.50000000       0.05000000       0.30000000 </v>
   <v>       0.10000000       0.10000000       0.30000000 </v>
   <v>       0.15000000       0.10000000       0.30000000 </v>
   <v>       0.20000000       0.10000000       0.30000000 </v>
   <v>       0.25000000       0.10000000       0.30000000 </v>
   <v>       0.30000000       0.10000000       0.30000000 </v>
   <v>       0.35000000       0.10000000       0.30000000 </v>
   <v>       0.40000000       0.10000000       0.30000000 </v>
   <v>       0.45000000       0.10000000       0.30000000 </v>
   <v>       0.50000000       0.10000000       0.30000000 </v>
   <v>       0.15000000       0.15000000       0.30000000 </v>
   <v>       0.20000000       0.15000000       0.30000000 </v>
   <v>       0.25000000       0.15000000       0.30000000 </v>
   <v>       0.30000000       0.15000000       0.30000000 </v>
   <v>       0.35000000       0.15000000       0.30000000 </v>
   <v>       0.40000000       0.15000000       0.30000000 </v>
   <v>       0.45000000       0.15000000       0.30000000 </v>
   <v>       0.50000000       0.15000000       0.30000000 </v>
   <v>       0.20000000       0.20000000       0.30000000 </v>
   <v>       0.25000000       0.20000000       0.30000000 </v>
   <v>       0.30000000       0.20000000       0.30000000 </v>
   <v>       0.35000000       0.20000000       0.30000000 </v>
   <v>       0.40000000       0.20000000       0.30000000 </v>
   <v>       0.45000000       0.20000000       0.30000000 </v>
   <v>       0.50000000       0.20000000       0.30000000 </v>
   <v>       0.25000000       0.25000000       0.30000000 </v>
   <v>       0.30000000       0.25000000       0.30000000 </v>
   <v>       0.35000000       0.25000000       0.30000000 </v>
   <v>       0.40000000       0.25000000       0.30000000 </v>
   <v>       0.45000000       0.25000000       0.30000000 </v>
   <v>       0.50000000       0.25000000       0.30000000 </v>
   <v>       0.30000000       0.30000000       0.30000000 </v>
   <v>       0.35000000       0.30000000       0.30000000 </v>
   <v>       0.40000000       0.30000000       0.30000000 </v>
   <v>       0.45000000       0.30000000       0.30000000 </v>
   <v>       0.50000000       0.30000000       0.30000000 </v>
   <v>       0.35000000       0.35000000       0.30000000 </v>
   <v>       0.40000000       0.35000000       0.30000000 </v>
   <v>       0.45000000       0.35000000       0.30000000 </v>
   <v>       0.50000000       0.35000000       0.30000000 </v>
   <v>       0.40000000       0.40000000       0.30000000 </v>
   <v>       0.45000000       0.40000000       0.30000000 </v>
   <v>       0.50000000       0.40000000       0.30000000 </v>
   <v>       0.45000000       0.45000000       0.30000000 </v>
   <v>       0.50000000       0.45000000       0.30000000 </v>
   <v>       0.50000000       0.50000000       0.30000000 </v>
   <v>       0.00000000       0.00000000       0.35000000 </v>
   <v>       0.05000000       0.00000000       0.35000000 </v>
   <v>       0.10000000       0.00000000       0.35000000 </v>
   <v>       0.15000000       0.00000000       0.35000000 </v>
   <v>       0.20000000       0.00000000       0.35000000 </v>
   <v>       0.25000000       0.00000000       0.35000000 </v>
   <v>       0.30000000       0.00000000       0.35000000 </v>
   <v>       0.35000000       0.00000000       0.35000000 </v>
   <v>       0.40000000       0.00000000       0.35000000 </v>
   <v>       0.45000000       0.00000000       0.35000000 </v>
   <v>       0.50000000       0.00000000       0.35000000 </v>
   <v>       0.05000000       0.05000000       0.35000000 </v>
   <v>       0.10000000       0.05000000       0.35000000 </v>
   <v>       0.15000000       0.05000000       0.35000000 </v>
   <v>       0.20000000       0.05000000       0.35000000 </v>
   <v>       0.25000000       0.05000000       0.35000000 </v>
   <v>       0.30000000       0.05000000       0.35000000 </v>
   <v>       0.35000000       0.05000000       0.35000000 </v>
   <v>       0.40000000       0.05000000       0.35000000 </v>
   <v>       0.45000000       0.05000000       0.35000000 </v>
   <v>       0.50000000       0.05000000       0.35000000 </v>
   <v>       0.10000000       0.10000000       0.35000000 </v>
   <v>       0.15000000       0.10000000       0.35000000 </v>
   <v>       0.20000000       0.10000000       0.35000000 </v>
   <v>       0.25000000       0.10000000       0.35000000 </v>
   <v>       0.30000000       0.10000000       0.35000000 </v>
   <v>       0.35000000       0.10000000       0.35000000 </v>
   <v>       0.40000000       0.10000000       0.35000000 </v>
   <v>       0.45000000       0.10000000       0.35000000 </v>
   <v>       0.50000000       0.10000000       0.35000000 </v>
   <v>       0.15000000       0.15000000       0.35000000 </v>
   <v>       0.20000000       0.15000000       0.35000000 </v>
   <v>       0.25000000       0.15000000       0.35000000 </v>
   <v>       0.30000000       0.15000000       0.35000000 </v>
   <v>       0.35000000       0.15000000       0.35000000 </v>
   <v>       0.40000000       0.15000000       0.35000000 </v>
   <v>       0.45000000       0.15000000       0.35000000 </v>
   <v>       0.50000000       0.15000000       0.35000000 </v>
   <v>       0.20000000       0.20000000       0.35000000 </v>
   <v>       0.25000000       0.20000000       0.35000000 </v>
   <v>       0.30000000       0.20000000       0.35000000 </v>
   <v>       0.35000000       0.20000000       0.35000000 </v>
   <v>       0.40000000       0.20000000       0.35000000 </v>
   <v>       0.45000000       0.20000000       0.35000000 </v>
   <v>       0.50000000       0.20000000       0.35000000 </v>
   <v>       0.25000000       0.25000000       0.35000000 </v>
   <v>       0.30000000       0.25000000       0.35000000 </v>
   <v>       0.35000000       0.25000000       0.35000000 </v>
   <v>       0.40000000       0.25000000       0.35000000 </v>
   <v>       0.45000000       0.25000000       0.35000000 </v>
   <v>       0.50000000       0.25000000       0.35000000 </v>
   <v>       0.30000000       0.30000000       0.35000000 </v>
   <v>       0.35000000       0.30000000       0.35000000 </v>
   <v>       0.40000000       0.30000000       0.35000000 </v>
   <v>       0.45000000       0.30000000       0.35000000 </v>
   <v>       0.50000000       0.30000000       0.35000000 </v>
   <v>       0.35000000       0.35000000       0.35000000 </v>
   <v>       0.40000000       0.35000000       0.35000000 </v>
   <v>       0.45000000       0.35000000       0.35000000 </v>
   <v>       0.50000000       0.35000000       0.35000000 </v>
   <v>       0.40000000       0.40000000       0.35000000 </v>
   <v>       0.45000000       0.40000000       0.35000000 </v>
   <v>       0.50000000       0.40000000       0.35000000 </v>
   <v>       0.45000000       0.45000000       0.35000000 </v>
   <v>       0.50000000       0.45000000       0.35000000 </v>
   <v>       0.50000000       0.50000000       0.35000000 </v>
   <v>       0.00000000       0.00000000       0.40000000 </v>
   <v>       0.05000000       0.00000000       0.40000000 </v>
   <v>       0.10000000       0.00000000       0.40000000 </v>
   <v>       0.15000000       0.00000000       0.40000000 </v>
   <v>       0.20000000       0.00000000       0.40000000 </v>
   <v>       0.25000000       0.00000000       0.40000000 </v>
   <v>       0.30000000       0.00000000       0.40000000 </v>
   <v>       0.35000000       0.00000000       0.40000000 </v>
   <v>       0.40000000       0.00000000       0.40000000 </v>
   <v>       0.45000000       0.00000000       0.40000000 </v>
   <v>       0.50000000       0.00000000       0.40000000 </v>
   <v>       0.05000000       0.05000000       0.40000000 </v>
   <v>       0.10000000       0.05000000       0.40000000 </v>
   <v>       0.15000000       0.05000000       0.40000000 </v>
   <v>       0.20000000       0.05000000       0.40000000 </v>
   <v>       0.25000000       0.05000000       0.40000000 </v>
   <v>       0.30000000       0.05000000       0.40000000 </v>
   <v>       0.35000000       0.05000000       0.40000000 </v>
   <v>       0.40000000       0.05000000       0.40000000 </v>
   <v>       0.45000000       0.05000000       0.40000000 </v>
   <v>       0.50000000       0.05000000       0.40000000 </v>
   <v>       0.10000000       0.10000000       0.40000000 </v>
   <v>       0.15000000       0.10000000       0.40000000 </v>
   <v>       0.20000000       0.10000000       0.40000000 </v>
   <v>       0.25000000       0.10000000       0.40000000 </v>
   <v>       0.30000000       0.10000000       0.40000000 </v>
   <v>       0.35000000       0.10000000       0.40000000 </v>
   <v>       0.40000000       0.10000000       0.40000000 </v>
   <v>       0.45000000       0.10000000       0.40000000 </v>
   <v>       0.50000000       0.10000000       0.40000000 </v>
   <v>       0.15000000       0.15000000       0.40000000 </v>
   <v>       0.20000000       0.15000000       0.40000000 </v>
   <v>       0.25000000       0.15000000       0.40000000 </v>
   <v>       0.30000000       0.15000000       0.40000000 </v>
   <v>       0.35000000       0.15000000       0.40000000 </v>
   <v>       0.40000000       0.15000000       0.40000000 </v>
   <v>       0.45000000       0.15000000       0.40000000 </v>
   <v>       0.50000000       0.15000000       0.40000000 </v>
   <v>       0.20000000       0.20000000       0.40000000 </v>
   <v>       0.25000000       0.20000000       0.40000000 </v>
   <v>       0.30000000       0.20000000       0.40000000 </v>
   <v>       0.35000000       0.20000000       0.40000000 </v>
   <v>       0.40000000       0.20000000       0.40000000 </v>
   <v>       0.45000000       0.20000000       0.40000000 </v>
   <v>       0.50000000       0.20000000       0.40000000 </v>
   <v>       0.25000000       0.25000000       0.40000000 </v>
   <v>       0.30000000       0.25000000       0.40000000 </v>
   <v>       0.35000000       0.25000000       0.40000000 </v>
   <v>       0.40000000       0.25000000       0.40000000 </v>
   <v>       0.45000000       0.25000000       0.40000000 </v>
   <v>       0.50000000       0.25000000       0.40000000 </v>
   <v>       0.30000000       0.30000000       0.40000000 </v>
   <v>       0.35000000       0.30000000       0.40000000 </v>
   <v>       0.40000000       0.30000000       0.40000000 </v>
   <v>       0.45000000       0.30000000       0.40000000 </v>
   <v>       0.50000000       0.30000000       0.40000000 </v>
   <v>       0.35000000       0.35000000       0.40000000 </v>
   <v>       0.40000000       0.35000000       0.40000000 </v>
   <v>       0.45000000       0.35000000       0.40000000 </v>
   <v>       0.50000000       0.35000000       0.40000000 </v>
   <v>       0.40000000       0.40000000       0.40000000 </v>
   <v>       0.45000000       0.40000000       0.40000000 </v>
   <v>       0.50000000       0.40000000       0.40000000 </v>
   <v>       0.45000000       0.45000000       0.40000000 </v>
   <v>       0.50000000       0.45000000       0.40000000 </v>
   <v>       0.50000000       0.50000000       0.40000000 </v>
   <v>       0.00000000       0.00000000       0.45000000 </v>
   <v>       0.05000000       0.00000000       0.45000000 </v>
   <v>       0.10000000       0.00000000       0.45000000 </v>
   <v>       0.15000000       0.00000000       0.45000000 </v>
   <v>       0.20000000       0.00000000       0.45000000 </v>
   <v>       0.25000000       0.00000000       0.45000000 </v>
   <v>       0.30000000       0.00000000       0.45000000 </v>
   <v>       0.35000000       0.00000000       0.45000000 </v>
   <v>       0.40000000       0.00000000       0.45000000 </v>
   <v>       0.45000000       0.00000000       0.45000000 </v>
   <v>       0.50000000       0.00000000       0.45000000 </v>
   <v>       0.05000000       0.05000000       0.45000000 </v>
   <v>       0.10000000       0.05000000       0.45000000 </v>
   <v>       0.15000000       0.05000000       0.45000000 </v>
   <v>       0.20000000       0.05000000       0.45000000 </v>
   <v>       0.25000000       0.05000000       0.45000000 </v>
   <v>       0.30000000       0.05000000       0.45000000 </v>
   <v>       0.35000000       0.05000000       0.45000000 </v>
   <v>       0.40000000       0.05000000       0.45000000 </v>
   <v>       0.45000000       0.05000000       0.45000000 </v>
   <v>       0.50000000       0.05000000       0.45000000 </v>
   <v>       0.10000000       0.10000000       0.45000000 </v>
   <v>       0.15000000       0.10000000       0.45000000 </v>
   <v>       0.20000000       0.10000000       0.45000000 </v>
   <v>       0.25000000       0.10000000       0.45000000 </v>
   <v>       0.30000000       0.10000000       0.45000000 </v>
   <v>       0.35000000       0.10000000       0.45000000 </v>
   <v>       0.40000000       0.10000000       0.45000000 </v>
   <v>       0.45000000       0.10000000       0.45000000 </v>
   <v>       0.50000000       0.10000000       0.45000000 </v>
   <v>       0.15000000       0.15000000       0.45000000 </v>
   <v>       0.20000000       0.15000000       0.45000000 </v>
   <v>       0.25000000       0.15000000       0.45000000 </v>
   <v>       0.30000000       0.15000000       0.45000000 </v>
   <v>       0.35000000       0.15000000       0.45000000 </v>
   <v>       0.40000000       0.15000000       0.45000000 </v>
   <v>       0.45000000       0.15000000       0.45000000 </v>
   <v>       0.50000000       0.15000000       0.45000000 </v>
   <v>       0.20000000       0.20000000       0.45000000 </v>
   <v>       0.25000000       0.20000000       0.45000000 </v>
   <v>       0.30000000       0.20000000       0.45000000 </v>
   <v>       0.35000000       0.20000000       0.45000000 </v>
   <v>       0.40000000       0.20000000       0.45000000 </v>
   <v>       0.45000000       0.20000000       0.45000000 </v>
   <v>       0.50000000       0.20000000       0.45000000 </v>
   <v>       0.25000000       0.25000000       0.45000000 </v>
   <v>       0.30000000       0.25000000       0.45000000 </v>
   <v>       0.35000000       0.25000000       0.45000000 </v>
   <v>       0.40000000       0.25000000       0.45000000 </v>
   <v>       0.45000000       0.25000000       0.45000000 </v>
   <v>       0.50000000       0.25000000       0.45000000 </v>
   <v>       0.30000000       0.30000000       0.45000000 </v>
   <v>       0.35000000       0.30000000       0.45000000 </v>
   <v>       0.40000000       0.30000000       0.45000000 </v>
   <v>       0.45000000       0.30000000       0.45000000 </v>
   <v>       0.50000000       0.30000000       0.45000000 </v>
   <v>       0.35000000       0.35000000       0.45000000 </v>
   <v>       0.40000000       0.35000000       0.45000000 </v>
   <v>       0.45000000       0.35000000       0.45000000 </v>
   <v>       0.50000000       0.35000000       0.45000000 </v>
   <v>       0.40000000       0.40000000       0.45000000 </v>
   <v>       0.45000000       0.40000000       0.45000000 </v>
   <v>       0.50000000       0.40000000       0.45000000 </v>
   <v>       0.45000000       0.45000000       0.45000000 </v>
   <v>       0.50000000       0.45000000       0.45000000 </v>
   <v>       0.50000000       0.50000000       0.45000000 </v>
   <v>       0.00000000       0.00000000       0.50000000 </v>
   <v>       0.05000000       0.00000000       0.50000000 </v>
   <v>       0.10000000       0.00000000       0.50000000 </v>
   <v>       0.15000000       0.00000000       0.50000000 </v>
   <v>       0.20000000       0.00000000       0.50000000 </v>
   <v>       0.25000000       0.00000000       0.50000000 </v>
   <v>       0.30000000       0.00000000       0.50000000 </v>
   <v>       0.35000000       0.00000000       0.50000000 </v>
   <v>       0.40000000       0.00000000       0.50000000 </v>
   <v>       0.45000000       0.00000000       0.50000000 </v>
   <v>       0.50000000       0.00000000       0.50000000 </v>
   <v>       0.05000000       0.05000000       0.50000000 </v>
   <v>       0.10000000       0.05000000       0.50000000 </v>
   <v>       0.15000000       0.05000000       0.50000000 </v>
   <v>       0.20000000       0.05000000       0.50000000 </v>
   <v>       0.25000000       0.05000000       0.50000000 </v>
   <v>       0.30000000       0.05000000       0.50000000 </v>
   <v>       0.35000000       0.05000000       0.50000000 </v>
   <v>       0.40000000       0.05000000       0.50000000 </v>
   <v>       0.45000000       0.05000000       0.50000000 </v>
   <v>       0.50000000       0.05000000       0.50000000 </v>
   <v>       0.10000000       0.10000000       0.50000000 </v>
   <v>       0.15000000       0.10000000       0.50000000 </v>
   <v>       0.20000000       0.10000000       0.50000000 </v>
   <v>       0.25000000       0.10000000       0.50000000 </v>
   <v>       0.30000000       0.10000000       0.50000000 </v>
   <v>       0.35000000       0.10000000       0.50000000 </v>
   <v>       0.40000000       0.10000000       0.50000000 </v>
   <v>       0.45000000       0.10000000       0.50000000 </v>
   <v>       0.50000000       0.10000000       0.50000000 </v>
   <v>       0.15000000       0.15000000       0.50000000 </v>
   <v>       0.20000000       0.15000000       0.50000000 </v>
   <v>       0.25000000       0.15000000       0.50000000 </v>
   <v>       0.30000000       0.15000000       0.50000000 </v>
   <v>       0.35000000       0.15000000       0.50000000 </v>
   <v>       0.40000000       0.15000000       0.50000000 </v>
   <v>       0.45000000       0.15000000       0.50000000 </v>
   <v>       0.50000000       0.15000000       0.50000000 </v>
   <v>       0.20000000       0.20000000       0.50000000 </v>
   <v>       0.25000000       0.20000000       0.50000000 </v>
   <v>       0.30000000       0.20000000       0.50000000 </v>
   <v>       0.35000000       0.20000000       0.50000000 </v>
   <v>       0.40000000       0.20000000       0.50000000 </v>
   <v>       0.45000000       0.20000000       0.50000000 </v>
   <v>       0.50000000       0.20000000       0.50000000 </v>
   <v>       0.25000000       0.25000000       0.50000000 </v>
   <v>       0.30000000       0.25000000       0.50000000 </v>
   <v>       0.35000000       0.25000000       0.50000000 </v>
   <v>       0.40000000       0.25000000       0.50000000 </v>
   <v>       0.45000000       0.25000000       0.50000000 </v>
   <v>       0.50000000       0.25000000       0.50000000 </v>
   <v>       0.30000000       0.30000000       0.50000000 </v>
   <v>       0.35000000       0.30000000       0.50000000 </v>
   <v>       0.40000000       0.30000000       0.50000000 </v>
   <v>       0.45000000       0.30000000       0.50000000 </v>
   <v>       0.50000000       0.30000000       0.50000000 </v>
   <v>       0.35000000       0.35000000       0.50000000 </v>
   <v>       0.40000000       0.35000000       0.50000000 </v>
   <v>       0.45000000       0.35000000       0.50000000 </v>
   <v>       0.50000000       0.35000000       0.50000000 </v>
   <v>       0.40000000       0.40000000       0.50000000 </v>
   <v>       0.45000000       0.40000000       0.50000000 </v>
   <v>       0.50000000       0.40000000       0.50000000 </v>
   <v>       0.45000000       0.45000000       0.50000000 </v>
   <v>       0.50000000       0.45000000       0.50000000 </v>
   <v>       0.50000000       0.50000000       0.50000000 </v>
  </varray>
  <varray name="weights" >
   <v>       0.00012500 </v>
   <v>       0.00050000 </v>
   <v>       0.00050000 </v>
   <v>       0.00050000 </v>
   <v>       0.00050000 </v>
   <v>       0.00050000 </v>
   <v>       0.00050000 </v>
   <v>       0.00050000 </v>
   <v>       0.00050000 </v>
   <v>       0.00050000 </v>
   <v>       0.00025000 </v>
   <v>       0.00050000 </v>
   <v>       0.00100000 </v>
   <v>       0.00100000 </v>
   <v>       0.00100000 </v>
   <v>       0.00100000 </v>
   <v>       0.00100000 </v>
   <v>       0.00100000 </v>
   <v>       0.00100000 </v>
   <v>       0.00100000 </v>
   <v>       0.00050000 </v>
   <v>       0.00050000 </v>
   <v>       0.00100000 </v>
   <v>       0.00100000 </v>
   <v>       0.00100000 </v>
   <v>       0.00100000 </v>
   <v>       0.00100000 </v>
   <v>       0.00100000 </v>
   <v>       0.00100000 </v>
   <v>       0.00050000 </v>
   <v>       0.00050000 </v>
   <v>       0.00100000 </v>
   <v>       0.00100000 </v>
   <v>       0.00100000 </v>
   <v>       0.00100000 </v>
   <v>       0.00100000 </v>
   <v>       0.00100000 </v>
   <v>       0.00050000 </v>
   <v>       0.00050000 </v>
   <v>       0.00100000 </v>
   <v>       0.00100000 </v>
   <v>       0.00100000 </v>
   <v>       0.00100000 </v>
   <v>       0.00100000 </v>
   <v>       0.00050000 </v>
   <v>       0.00050000 </v>
   <v>       0.00100000 </v>
   <v>       0.00100000 </v>
   <v>       0.00100000 </v>
   <v>       0.00100000 </v>
   <v>       0.00050000 </v>
   <v>       0.00050000 </v>
   <v>       0.00100000 </v>
   <v>       0.00100000 </v>
   <v>       0.00100000 </v>
   <v>       0.00050000 </v>
   <v>       0.00050000 </v>
   <v>       0.00100000 </v>
   <v>       0.00100000 </v>
   <v>       0.00050000 </v>
   <v>       0.00050000 </v>
   <v>       0.00100000 </v>
   <v>       0.00050000 </v>
   <v>       0.00050000 </v>
   <v>       0.00050000 </v>
   <v>       0.00012500 </v>
   <v>       0.00025000 </v>
   <v>       0.00100000 </v>
   <v>       0.00100000 </v>
   <v>       0.00100000 </v>
   <v>       0.00100000 </v>
   <v>       0.00100000 </v>
   <v>       0.00100000 </v>
   <v>       0.00100000 </v>
   <v>       0.00100000 </v>
   <v>       0.00100000 </v>
   <v>       0.00050000 </v>
   <v>       0.00100000 </v>
   <v>       0.00200000 </v>
   <v>       0.00200000 </v>
   <v>       0.00200000 </v>
   <v>       0.00200000 </v>
   <v>       0.00200000 </v>
   <v>       0.00200000 </v>
   <v>       0.00200000 </v>
   <v>       0.00200000 </v>
   <v>       0.00100000 </v>
   <v>       0.00100000 </v>
   <v>       0.00200000 </v>
   <v>       0.00200000 </v>
   <v>       0.00200000 </v>
   <v>       0.00200000 </v>
   <v>       0.00200000 </v>
   <v>       0.00200000 </v>
   <v>       0.00200000 </v>
   <v>       0.00100000 </v>
   <v>       0.00100000 </v>
   <v>       0.00200000 </v>
   <v>       0.00200000 </v>
   <v>       0.00200000 </v>
   <v>       0.00200000 </v>
   <v>       0.00200000 </v>
   <v>       0.00200000 </v>
   <v>       0.00100000 </v>
   <v>       0.00100000 </v>
   <v>       0.00200000 </v>
   <v>       0.00200000 </v>
   <v>       0.00200000 </v>
   <v>       0.00200000 </v>
   <v>       0.00200000 </v>
   <v>       0.00100000 </v>
   <v>       0.00100000 </v>
   <v>       0.00200000 </v>
   <v>       0.00200000 </v>
   <v>       0.00200000 </v>
   <v>       0.00200000 </v>
   <v>       0.00100000 </v>
   <v>       0.00100000 </v>
   <v>       0.00200000 </v>
   <v>       0.00200000 </v>
   <v>       0.00200000 </v>
   <v>       0.00100000 </v>
   <v>       0.00100000 </v>
   <v>       0.00200000 </v>
   <v>       0.00200000 </v>
   <v>       0.00100000 </v>
   <v>       0.00100000 </v>
   <v>       0.00200000 </v>
   <v>       0.00100000 </v>
   <v>       0.00100000 </v>
   <v>       0.00100000 </v>
   <v>       0.00025000 </v>
   <v>       0.00025000 </v>
   <v>       0.00100000 </v>
   <v>       0.00100000 </v>
   <v>       0.00100000 </v>
   <v>       0.00100000 </v>
   <v>       0.00100000 </v>
   <v>       0.00100000 </v>
   <v>       0.00100000 </v>
   <v>       0.00100000 </v>
   <v>       0.00100000 </v>
   <v>       0.00050000 </v>
   <v>       0.00100000 </v>
   <v>       0.00200000 </v>
   <v>       0.00200000 </v>
   <v>       0.00200000 </v>
   <v>       0.00200000 </v>
   <v>       0.00200000 </v>
   <v>       0.00200000 </v>
   <v>       0.00200000 </v>
   <v>       0.00200000 </v>
   <v>       0.00100000 </v>
   <v>       0.00100000 </v>
   <v>       0.00200000 </v>
   <v>       0.00200000 </v>
   <v>       0.00200000 </v>
   <v>       0.00200000 </v>
   <v>       0.00200000 </v>
   <v>       0.00200000 </v>
   <v>       0.00200000 </v>
   <v>       0.00100000 </v>
   <v>       0.00100000 </v>
   <v>       0.00200000 </v>
   <v>       0.00200000 </v>
   <v>       0.00200000 </v>
   <v>       0.00200000 </v>
   <v>       0.00200000 </v>
   <v>       0.00200000 </v>
   <v>       0.00100000 </v>
   <v>       0.00100000 </v>
   <v>       0.00200000 </v>
   <v>       0.00200000 </v>
   <v>       0.00200000 </v>
   <v>       0.00200000 </v>
   <v>       0.00200000 </v>
   <v>       0.00100000 </v>
   <v>       0.00100000 </v>
   <v>       0.00200000 </v>
   <v>       0.00200000 </v>
   <v>       0.00200000 </v>
   <v>       0.00200000 </v>
   <v>       0.00100000 </v>
   <v>       0.00100000 </v>
   <v>       0.00200000 </v>
   <v>       0.00200000 </v>
   <v>       0.00200000 </v>
   <v>       0.00100000 </v>
   <v>       0.00100000 </v>
   <v>       0.00200000 </v>
   <v>       0.00200000 </v>
   <v>       0.00100000 </v>
   <v>       0.00100000 </v>
   <v>       0.00200000 </v>
   <v>       0.00100000 </v>
   <v>       0.00100000 </v>
   <v>       0.00100000 </v>
   <v>       0.00025000 </v>
   <v>       0.00025000 </v>
   <v>       0.00100000 </v>
   <v>       0.00100000 </v>
   <v>       0.00100000 </v>
   <v>       0.00100000 </v>
   <v>       0.00100000 </v>
   <v>       0.00100000 </v>
   <v>       0.00100000 </v>
   <v>       0.00100000 </v>
   <v>       0.00100000 </v>
   <v>       0.00050000 </v>
   <v>       0.00100000 </v>
   <v>       0.00200000 </v>
   <v>       0.00200000 </v>
   <v>       0.00200000 </v>
   <v>       0.00200000 </v>
   <v>       0.00200000 </v>
   <v>       0.00200000 </v>
   <v>       0.00200000 </v>
   <v>       0.00200000 </v>
   <v>       0.00100000 </v>
   <v>       0.00100000 </v>
   <v>       0.00200000 </v>
   <v>       0.00200000 </v>
   <v>       0.00200000 </v>
   <v>       0.00200000 </v>
   <v>       0.00200000 </v>
   <v>       0.00200000 </v>
   <v>       0.00200000 </v>
   <v>       0.00100000 </v>
   <v>       0.00100000 </v>
   <v>       0.00200000 </v>
   <v>       0.00200000 </v>
   <v>       0.00200000 </v>
   <v>       0.00200000 </v>
   <v>       0.00200000 </v>
   <v>       0.00200000 </v>
   <v>       0.00100000 </v>
   <v>       0.00100000 </v>
   <v>       0.00200000 </v>
   <v>       0.00200000 </v>
   <v>       0.00200000 </v>
   <v>       0.00200000 </v>
   <v>       0.00200000 </v>
   <v>       0.00100000 </v>
   <v>       0.00100000 </v>
   <v>       0.00200000 </v>
   <v>       0.00200000 </v>
   <v>       0.00200000 </v>
   <v>       0.00200000 </v>
   <v>       0.00100000 </v>
   <v>       0.00100000 </v>
   <v>       0.00200000 </v>
   <v>       0.00200000 </v>
   <v>       0.00200000 </v>
   <v>       0.00100000 </v>
   <v>       0.00100000 </v>
   <v>       0.00200000 </v>
   <v>       0.00200000 </v>
   <v>       0.00100000 </v>
   <v>       0.00100000 </v>
   <v>       0.00200000 </v>
   <v>       0.00100000 </v>
   <v>       0.00100000 </v>
   <v>       0.00100000 </v>
   <v>       0.00025000 </v>
   <v>       0.00025000 </v>
   <v>       0.00100000 </v>
   <v>       0.00100000 </v>
   <v>       0.00100000 </v>
   <v>       0.00100000 </v>
   <v>       0.00100000 </v>
   <v>       0.00100000 </v>
   <v>       0.00100000 </v>
   <v>       0.00100000 </v>
   <v>       0.00100000 </v>
   <v>       0.00050000 </v>
   <v>       0.00100000 </v>
   <v>       0.00200000 </v>
   <v>       0.00200000 </v>
   <v>       0.00200000 </v>
   <v>       0.00200000 </v>
   <v>       0.00200000 </v>
   <v>       0.00200000 </v>
   <v>       0.00200000 </v>
   <v>       0.00200000 </v>
   <v>       0.00100000 </v>
   <v>       0.00100000 </v>
   <v>       0.00200000 </v>
   <v>       0.00200000 </v>
   <v>       0.00200000 </v>
   <v>       0.00200000 </v>
   <v>       0.00200000 </v>
   <v>       0.00200000 </v>
   <v>       0.00200000 </v>
   <v>       0.00100000 </v>
   <v>       0.00100000 </v>
   <v>       0.00200000 </v>
   <v>       0.00200000 </v>
   <v>       0.00200000 </v>
   <v>       0.00200000 </v>
   <v>       0.00200000 </v>
   <v>       0.00200000 </v>
   <v>       0.00100000 </v>
   <v>       0.00100000 </v>
   <v>       0.00200000 </v>
   <v>       0.00200000 </v>
   <v>       0.00200000 </v>
   <v>       0.00200000 </v>
   <v>       0.00200000 </v>
   <v>       0.00100000 </v>
   <v>       0.00100000 </v>
   <v>       0.00200000 </v>
   <v>       0.00200000 </v>
   <v>       0.00200000 </v>
   <v>       0.00200000 </v>
   <v>       0.00100000 </v>
   <v>       0.00100000 </v>
   <v>       0.00200000 </v>
   <v>       0.00200000 </v>
   <v>       0.00200000 </v>
   <v>       0.00100000 </v>
   <v>       0.00100000 </v>
   <v>       0.00200000 </v>
   <v>       0.00200000 </v>
   <v>       0.00100000 </v>
   <v>       0.00100000 </v>
   <v>       0.00200000 </v>
   <v>       0.00100000 </v>
   <v>       0.00100000 </v>
   <v>       0.00100000 </v>
   <v>       0.00025000 </v>
   <v>       0.00025000 </v>
   <v>       0.00100000 </v>
   <v>       0.00100000 </v>
   <v>       0.00100000 </v>
   <v>       0.00100000 </v>
   <v>       0.00100000 </v>
   <v>       0.00100000 </v>
   <v>       0.00100000 </v>
   <v>       0.00100000 </v>
   <v>       0.00100000 </v>
   <v>       0.00050000 </v>
   <v>       0.00100000 </v>
   <v>       0.00200000 </v>
   <v>       0.00200000 </v>
   <v>       0.00200000 </v>
   <v>       0.00200000 </v>
   <v>       0.00200000 </v>
   <v>       0.00200000 </v>
   <v>       0.00200000 </v>
   <v>       0.00200000 </v>
   <v>       0.00100000 </v>
   <v>       0.00100000 </v>
   <v>       0.00200000 </v>
   <v>       0.00200000 </v>
   <v>       0.00200000 </v>
   <v>       0.00200000 </v>
   <v>       0.00200000 </v>
   <v>       0.00200000 </v>
   <v>       0.00200000 </v>
   <v>       0.00100000 </v>
   <v>       0.00100000 </v>
   <v>       0.00200000 </v>
   <v>       0.00200000 </v>
   <v>       0.00200000 </v>
   <v>       0.00200000 </v>
   <v>       0.00200000 </v>
   <v>       0.00200000 </v>
   <v>       0.00100000 </v>
   <v>       0.00100000 </v>
   <v>       0.00200000 </v>
   <v>       0.00200000 </v>
   <v>       0.00200000 </v>
   <v>       0.00200000 </v>
   <v>       0.00200000 </v>
   <v>       0.00100000 </v>
   <v>       0.00100000 </v>
   <v>       0.00200000 </v>
   <v>       0.00200000 </v>
   <v>       0.00200000 </v>
   <v>       0.00200000 </v>
   <v>       0.00100000 </v>
   <v>       0.00100000 </v>
   <v>       0.00200000 </v>
   <v>       0.00200000 </v>
   <v>       0.00200000 </v>
   <v>       0.00100000 </v>
   <v>       0.00100000 </v>
   <v>       0.00200000 </v>
   <v>       0.00200000 </v>
   <v>       0.00100000 </v>
   <v>       0.00100000 </v>
   <v>       0.00200000 </v>
   <v>       0.00100000 </v>
   <v>       0.00100000 </v>
   <v>       0.00100000 </v>
   <v>       0.00025000 </v>
   <v>       0.00025000 </v>
   <v>       0.00100000 </v>
   <v>       0.00100000 </v>
   <v>       0.00100000 </v>
   <v>       0.00100000 </v>
   <v>       0.00100000 </v>
   <v>       0.00100000 </v>
   <v>       0.00100000 </v>
   <v>       0.00100000 </v>
   <v>       0.00100000 </v>
   <v>       0.00050000 </v>
   <v>       0.00100000 </v>
   <v>       0.00200000 </v>
   <v>       0.00200000 </v>
   <v>       0.00200000 </v>
   <v>       0.00200000 </v>
   <v>       0.00200000 </v>
   <v>       0.00200000 </v>
   <v>       0.00200000 </v>
   <v>       0.00200000 </v>
   <v>       0.00100000 </v>
   <v>       0.00100000 </v>
   <v>       0.00200000 </v>
   <v>       0.00200000 </v>
   <v>       0.00200000 </v>
   <v>       0.00200000 </v>
   <v>       0.00200000 </v>
   <v>       0.00200000 </v>
   <v>       0.00200000 </v>
   <v>       0.00100000 </v>
   <v>       0.00100000 </v>
   <v>       0.00200000 </v>
   <v>       0.00200000 </v>
   <v>       0.00200000 </v>
   <v>       0.00200000 </v>
   <v>       0.00200000 </v>
   <v>       0.00200000 </v>
   <v>       0.00100000 </v>
   <v>       0.00100000 </v>
   <v>       0.00200000 </v>
   <v>       0.00200000 </v>
   <v>       0.00200000 </v>
   <v>       0.00200000 </v>
   <v>       0.00200000 </v>
   <v>       0.00100000 </v>
   <v>       0.00100000 </v>
   <v>       0.00200000 </v>
   <v>       0.00200000 </v>
   <v>       0.00200000 </v>
   <v>       0.00200000 </v>
   <v>       0.00100000 </v>
   <v>       0.00100000 </v>
   <v>       0.00200000 </v>
   <v>       0.00200000 </v>
   <v>       0.00200000 </v>
   <v>       0.00100000 </v>
   <v>       0.00100000 </v>
   <v>       0.00200000 </v>
   <v>       0.00200000 </v>
   <v>       0.00100000 </v>
   <v>       0.00100000 </v>
   <v>       0.00200000 </v>
   <v>       0.00100000 </v>
   <v>       0.00100000 </v>
   <v>       0.00100000 </v>
   <v>       0.00025000 </v>
   <v>       0.00025000 </v>
   <v>       0.00100000 </v>
   <v>       0.00100000 </v>
   <v>       0.00100000 </v>
   <v>       0.00100000 </v>
   <v>       0.00100000 </v>
   <v>       0.00100000 </v>
   <v>       0.00100000 </v>
   <v>       0.00100000 </v>
   <v>       0.00100000 </v>
   <v>       0.00050000 </v>
   <v>       0.00100000 </v>
   <v>       0.00200000 </v>
   <v>       0.00200000 </v>
   <v>       0.00200000 </v>
   <v>       0.00200000 </v>
   <v>       0.00200000 </v>
   <v>       0.00200000 </v>
   <v>       0.00200000 </v>
   <v>       0.00200000 </v>
   <v>       0.00100000 </v>
   <v>       0.00100000 </v>
   <v>       0.00200000 </v>
   <v>       0.00200000 </v>
   <v>       0.00200000 </v>
   <v>       0.00200000 </v>
   <v>       0.00200000 </v>
   <v>       0.00200000 </v>
   <v>       0.00200000 </v>
   <v>       0.00100000 </v>
   <v>       0.00100000 </v>
   <v>       0.00200000 </v>
   <v>       0.00200000 </v>
   <v>       0.00200000 </v>
   <v>       0.00200000 </v>
   <v>       0.00200000 </v>
   <v>       0.00200000 </v>
   <v>       0.00100000 </v>
   <v>       0.00100000 </v>
   <v>       0.00200000 </v>
   <v>       0.00200000 </v>
   <v>       0.00200000 </v>
   <v>       0.00200000 </v>
   <v>       0.00200000 </v>
   <v>       0.00100000 </v>
   <v>       0.00100000 </v>
   <v>       0.00200000 </v>
   <v>       0.00200000 </v>
   <v>       0.00200000 </v>
   <v>       0.00200000 </v>
   <v>       0.00100000 </v>
   <v>       0.00100000 </v>
   <v>       0.00200000 </v>
   <v>       0.00200000 </v>
   <v>       0.00200000 </v>
   <v>       0.00100000 </v>
   <v>       0.00100000 </v>
   <v>       0.00200000 </v>
   <v>       0.00200000 </v>
   <v>       0.00100000 </v>
   <v>       0.00100000 </v>
   <v>       0.00200000 </v>
   <v>       0.00100000 </v>
   <v>       0.00100000 </v>
   <v>       0.00100000 </v>
   <v>       0.00025000 </v>
   <v>       0.00025000 </v>
   <v>       0.00100000 </v>
   <v>       0.00100000 </v>
   <v>       0.00100000 </v>
   <v>       0.00100000 </v>
   <v>       0.00100000 </v>
   <v>       0.00100000 </v>
   <v>       0.00100000 </v>
   <v>       0.00100000 </v>
   <v>       0.00100000 </v>
   <v>       0.00050000 </v>
   <v>       0.00100000 </v>
   <v>       0.00200000 </v>
   <v>       0.00200000 </v>
   <v>       0.00200000 </v>
   <v>       0.00200000 </v>
   <v>       0.00200000 </v>
   <v>       0.00200000 </v>
   <v>       0.00200000 </v>
   <v>       0.00200000 </v>
   <v>       0.00100000 </v>
   <v>       0.00100000 </v>
   <v>       0.00200000 </v>
   <v>       0.00200000 </v>
   <v>       0.00200000 </v>
   <v>       0.00200000 </v>
   <v>       0.00200000 </v>
   <v>       0.00200000 </v>
   <v>       0.00200000 </v>
   <v>       0.00100000 </v>
   <v>       0.00100000 </v>
   <v>       0.00200000 </v>
   <v>       0.00200000 </v>
   <v>       0.00200000 </v>
   <v>       0.00200000 </v>
   <v>       0.00200000 </v>
   <v>       0.00200000 </v>
   <v>       0.00100000 </v>
   <v>       0.00100000 </v>
   <v>       0.00200000 </v>
   <v>       0.00200000 </v>
   <v>       0.00200000 </v>
   <v>       0.00200000 </v>
   <v>       0.00200000 </v>
   <v>       0.00100000 </v>
   <v>       0.00100000 </v>
   <v>       0.00200000 </v>
   <v>       0.00200000 </v>
   <v>       0.00200000 </v>
   <v>       0.00200000 </v>
   <v>       0.00100000 </v>
   <v>       0.00100000 </v>
   <v>       0.00200000 </v>
   <v>       0.00200000 </v>
   <v>       0.00200000 </v>
   <v>       0.00100000 </v>
   <v>       0.00100000 </v>
   <v>       0.00200000 </v>
   <v>       0.00200000 </v>
   <v>       0.00100000 </v>
   <v>       0.00100000 </v>
   <v>       0.00200000 </v>
   <v>       0.00100000 </v>
   <v>       0.00100000 </v>
   <v>       0.00100000 </v>
   <v>       0.00025000 </v>
   <v>       0.00025000 </v>
   <v>       0.00100000 </v>
   <v>       0.00100000 </v>
   <v>       0.00100000 </v>
   <v>       0.00100000 </v>
   <v>       0.00100000 </v>
   <v>       0.00100000 </v>
   <v>       0.00100000 </v>
   <v>       0.00100000 </v>
   <v>       0.00100000 </v>
   <v>       0.00050000 </v>
   <v>       0.00100000 </v>
   <v>       0.00200000 </v>
   <v>       0.00200000 </v>
   <v>       0.00200000 </v>
   <v>       0.00200000 </v>
   <v>       0.00200000 </v>
   <v>       0.00200000 </v>
   <v>       0.00200000 </v>
   <v>       0.00200000 </v>
   <v>       0.00100000 </v>
   <v>       0.00100000 </v>
   <v>       0.00200000 </v>
   <v>       0.00200000 </v>
   <v>       0.00200000 </v>
   <v>       0.00200000 </v>
   <v>       0.00200000 </v>
   <v>       0.00200000 </v>
   <v>       0.00200000 </v>
   <v>       0.00100000 </v>
   <v>       0.00100000 </v>
   <v>       0.00200000 </v>
   <v>       0.00200000 </v>
   <v>       0.00200000 </v>
   <v>       0.00200000 </v>
   <v>       0.00200000 </v>
   <v>       0.00200000 </v>
   <v>       0.00100000 </v>
   <v>       0.00100000 </v>
   <v>       0.00200000 </v>
   <v>       0.00200000 </v>
   <v>       0.00200000 </v>
   <v>       0.00200000 </v>
   <v>       0.00200000 </v>
   <v>       0.00100000 </v>
   <v>       0.00100000 </v>
   <v>       0.00200000 </v>
   <v>       0.00200000 </v>
   <v>       0.00200000 </v>
   <v>       0.00200000 </v>
   <v>       0.00100000 </v>
   <v>       0.00100000 </v>
   <v>       0.00200000 </v>
   <v>       0.00200000 </v>
   <v>       0.00200000 </v>
   <v>       0.00100000 </v>
   <v>       0.00100000 </v>
   <v>       0.00200000 </v>
   <v>       0.00200000 </v>
   <v>       0.00100000 </v>
   <v>       0.00100000 </v>
   <v>       0.00200000 </v>
   <v>       0.00100000 </v>
   <v>       0.00100000 </v>
   <v>       0.00100000 </v>
   <v>       0.00025000 </v>
   <v>       0.00012500 </v>
   <v>       0.00050000 </v>
   <v>       0.00050000 </v>
   <v>       0.00050000 </v>
   <v>       0.00050000 </v>
   <v>       0.00050000 </v>
   <v>       0.00050000 </v>
   <v>       0.00050000 </v>
   <v>       0.00050000 </v>
   <v>       0.00050000 </v>
   <v>       0.00025000 </v>
   <v>       0.00050000 </v>
   <v>       0.00100000 </v>
   <v>       0.00100000 </v>
   <v>       0.00100000 </v>
   <v>       0.00100000 </v>
   <v>       0.00100000 </v>
   <v>       0.00100000 </v>
   <v>       0.00100000 </v>
   <v>       0.00100000 </v>
   <v>       0.00050000 </v>
   <v>       0.00050000 </v>
   <v>       0.00100000 </v>
   <v>       0.00100000 </v>
   <v>       0.00100000 </v>
   <v>       0.00100000 </v>
   <v>       0.00100000 </v>
   <v>       0.00100000 </v>
   <v>       0.00100000 </v>
   <v>       0.00050000 </v>
   <v>       0.00050000 </v>
   <v>       0.00100000 </v>
   <v>       0.00100000 </v>
   <v>       0.00100000 </v>
   <v>       0.00100000 </v>
   <v>       0.00100000 </v>
   <v>       0.00100000 </v>
   <v>       0.00050000 </v>
   <v>       0.00050000 </v>
   <v>       0.00100000 </v>
   <v>       0.00100000 </v>
   <v>       0.00100000 </v>
   <v>       0.00100000 </v>
   <v>       0.00100000 </v>
   <v>       0.00050000 </v>
   <v>       0.00050000 </v>
   <v>       0.00100000 </v>
   <v>       0.00100000 </v>
   <v>       0.00100000 </v>
   <v>       0.00100000 </v>
   <v>       0.00050000 </v>
   <v>       0.00050000 </v>
   <v>       0.00100000 </v>
   <v>       0.00100000 </v>
   <v>       0.00100000 </v>
   <v>       0.00050000 </v>
   <v>       0.00050000 </v>
   <v>       0.00100000 </v>
   <v>       0.00100000 </v>
   <v>       0.00050000 </v>
   <v>       0.00050000 </v>
   <v>       0.00100000 </v>
   <v>       0.00050000 </v>
   <v>       0.00050000 </v>
   <v>       0.00050000 </v>
   <v>       0.00012500 </v>
  </varray>
 </kpoints>
 <parameters>
  <separator name="general" >
   <i type="string" name="SYSTEM">Al</i>
   <i type="logical" name="LCOMPAT"> F  </i>
  </separator>
  <separator name="electronic" >
   <i type="string" name="PREC">accura</i>
   <i name="ENMAX">    550.00000000</i>
   <i name="ENAUG">    291.05200000</i>
   <i name="EDIFF">      0.00000010</i>
   <i type="int" name="IALGO">    38</i>
   <i type="int" name="IWAVPR">    11</i>
   <i type="int" name="NBANDS">    16</i>
   <i name="NELECT">     12.00000000</i>
   <separator name="electronic smearing" >
    <i type="int" name="ISMEAR">     2</i>
    <i name="SIGMA">      0.10000000</i>
   </separator>
   <separator name="electronic projectors" >
    <i type="logical" name="LREAL"> T  </i>
    <v name="ROPT">     -0.00025000</v>
    <i type="int" name="LMAXPAW">  -100</i>
    <i type="int" name="LMAXMIX">     2</i>
   </separator>
   <separator name="electronic startup" >
    <i type="int" name="ISTART">     0</i>
    <i type="int" name="ICHARG">     1</i>
    <i type="int" name="INIWAV">     1</i>
   </separator>
   <separator name="electronic spin" >
    <i type="int" name="ISPIN">     1</i>
    <i type="logical" name="LNONCOLLINEAR"> F  </i>
    <v name="MAGMOM">      1.00000000      1.00000000      1.00000000      1.00000000</v>
    <i name="NUPDOWN">     -1.00000000</i>
    <i type="logical" name="LSORBIT"> F  </i>
    <v name="SAXIS">      0.00000000      0.00000000      1.00000000</v>
    <i type="logical" name="LSPIRAL"> F  </i>
    <v name="QSPIRAL">      0.00000000      0.00000000      0.00000000</v>
    <i type="logical" name="LZEROZ"> F  </i>
   </separator>
   <separator name="electronic exchange-correlation" >
    <i type="logical" name="LASPH"> F  </i>
    <i type="logical" name="LMETAGGA"> F  </i>
   </separator>
   <separator name="electronic convergence" >
    <i type="int" name="NELM">    60</i>
    <i type="int" name="NELMDL">     0</i>
    <i type="int" name="NELMIN">     2</i>
    <i name="ENINI">    550.00000000</i>
    <separator name="electronic convergence detail" >
     <i type="logical" name="LDIAG"> T  </i>
     <i name="WEIMIN">      0.00100000</i>
     <i name="EBREAK">      0.00000000</i>
     <i name="DEPER">      0.30000000</i>
     <i type="int" name="NRMM">     4</i>
     <i name="TIME">      0.40000000</i>
    </separator>
   </separator>
   <separator name="electronic mixer" >
    <i name="AMIX">      0.40000000</i>
    <i name="BMIX">      1.00000000</i>
    <i name="AMIN">      0.10000000</i>
    <i name="AMIX_MAG">      1.60000000</i>
    <i name="BMIX_MAG">      1.00000000</i>
    <separator name="electronic mixer details" >
     <i type="int" name="IMIX">     4</i>
     <i type="int" name="MAXMIX">   -45</i>
     <i name="WC">    100.00000000</i>
     <i type="int" name="INIMIX">     1</i>
     <i type="int" name="MIXPRE">     1</i>
     <i type="int" name="MREMOVE">     5</i>
    </separator>
   </separator>
   <separator name="electronic dipolcorrection" >
    <i type="logical" name="LDIPOL"> F  </i>
    <i type="logical" name="LMONO"> F  </i>
    <i type="int" name="IDIPOL">     0</i>
    <i name="EPSILON">      1.00000000</i>
    <v name="DIPOL">   -100.00000000   -100.00000000   -100.00000000</v>
    <i name="EFIELD">      0.00000000</i>
   </separator>
  </separator>
  <separator name="grids" >
   <i type="int" name="NGX">    32</i>
   <i type="int" name="NGY">    32</i>
   <i type="int" name="NGZ">    30</i>
   <i type="int" name="NGXF">    64</i>
   <i type="int" name="NGYF">    64</i>
   <i type="int" name="NGZF">    60</i>
   <i type="logical" name="ADDGRID"> F  </i>
  </separator>
  <separator name="ionic" >
   <i type="int" name="NSW">     5</i>
   <i type="int" name="IBRION">     2</i>
   <i type="int" name="ISIF">     2</i>
   <i name="PSTRESS">      0.00000000</i>
   <i name="EDIFFG">      0.00000010</i>
   <i type="int" name="NFREE">     1</i>
   <i name="POTIM">      0.10000000</i>
   <i name="SMASS">     -3.00000000</i>
  </separator>
  <separator name="ionic md" >
   <i name="TEBEG">      0.00010000</i>
   <i name="TEEND">      0.00010000</i>
   <i type="int" name="NBLOCK">     1</i>
   <i type="int" name="KBLOCK">     5</i>
   <i type="int" name="NPACO">   256</i>
   <i name="APACO">     16.00000000</i>
  </separator>
  <separator name="symmetry" >
   <i type="int" name="ISYM">     2</i>
   <i name="SYMPREC">      0.00001000</i>
  </separator>
  <separator name="dos" >
   <i type="logical" name="LORBIT"> F  </i>
   <v name="RWIGS">     -1.00000000</v>
   <i type="int" name="NEDOS">   301</i>
   <i name="EMIN">     10.00000000</i>
   <i name="EMAX">    -10.00000000</i>
   <i name="EFERMI">      0.00000000</i>
  </separator>
  <separator name="writing" >
   <i type="int" name="NWRITE">     2</i>
   <i type="logical" name="LWAVE"> F  </i>
   <i type="logical" name="LCHARG"> T  </i>
   <i type="logical" name="LPARD"> F  </i>
   <i type="logical" name="LVTOT"> F  </i>
   <i type="logical" name="LELF"> F  </i>
   <i type="logical" name="LOPTICS"> F  </i>
   <v name="STM">      0.00000000      0.00000000      0.00000000      0.00000000      0.00000000</v>
  </separator>
  <separator name="performance" >
   <i type="int" name="NPAR">     8</i>
   <i type="int" name="NSIM">     4</i>
   <i type="int" name="NBLK">    32</i>
   <i type="logical" name="LPLANE"> T  </i>
   <i type="logical" name="LSCALAPACK"> T  </i>
   <i type="logical" name="LSCAAWARE"> F  </i>
   <i type="logical" name="LSCALU"> F  </i>
   <i type="logical" name="LASYNC"> F  </i>
  </separator>
  <separator name="miscellaneous" >
   <i type="int" name="IDIOT">     3</i>
   <i type="logical" name="LMUSIC"> F  </i>
   <v name="POMASS">     26.98200000</v>
   <i type="logical" name="LCORR"> T  </i>
  </separator>
  <i type="logical" name="LREAL_COMPAT"> F  </i>
  <i type="logical" name="GGA_COMPAT"> T  </i>
  <i type="logical" name="LBERRY"> F  </i>
  <i type="int" name="ICORELEVEL">     0</i>
  <i type="logical" name="LDAU"> F  </i>
  <i type="int" name="I_CONSTRAINED_M">     0</i>
  <separator name="electronic exchange-correlation" >
   <i type="string" name="GGA">--</i>
   <i type="int" name="VOSKOWN">     1</i>
   <i type="logical" name="LHFCALC"> F  </i>
   <i type="logical" name="LHFONE"> F  </i>
   <i type="logical" name="LRHFCALC"> F  </i>
   <i type="logical" name="LTHOMAS"> F  </i>
   <i type="logical" name="LMODELHF"> F  </i>
   <i name="ENCUTFOCK">      0.00000000</i>
   <i name="ENCUT4O">     -1.00000000</i>
   <i type="int" name="EXXOEP">     0</i>
   <i type="int" name="FOURORBIT">     0</i>
   <i name="AEXX">      0.00000000</i>
   <i name="HFALPHA">      0.00000000</i>
   <i name="ALDAX">      1.00000000</i>
   <i name="AGGAX">      1.00000000</i>
   <i name="ALDAC">      1.00000000</i>
   <i name="AGGAC">      1.00000000</i>
   <i type="int" name="NKREDX">     1</i>
   <i type="int" name="NKREDY">     1</i>
   <i type="int" name="NKREDZ">     1</i>
   <i type="logical" name="SHIFTRED"> F  </i>
   <i type="logical" name="ODDONLY"> F  </i>
   <i type="logical" name="EVENONLY"> F  </i>
   <i type="int" name="LMAXFOCK">     0</i>
   <i type="int" name="NMAXFOCKAE">     0</i>
   <i name="HFSCREEN">      0.00000000</i>
   <i name="HFSCREENC">      0.00000000</i>
  </separator>
  <separator name="model GW" >
   <i type="int" name="MODEL_GW">     0</i>
   <i name="MODEL_EPS0">      9.74642641</i>
   <i name="MODEL_ALPHA">      1.00000000</i>
  </separator>
  <separator name="linear response parameters" >
   <i type="logical" name="LEPSILON"> F  </i>
   <i type="logical" name="LRPA"> F  </i>
   <i type="logical" name="LNABLA"> F  </i>
   <i type="logical" name="LVEL"> F  </i>
   <i type="int" name="KINTER">     0</i>
   <i name="CSHIFT">      0.10000000</i>
   <i name="OMEGAMAX">     -1.00000000</i>
  </separator>
  <separator name="orbital magnetization" >
   <i type="logical" name="ORBITALMAG"> F  </i>
   <i type="logical" name="LMAGBLOCH"> F  </i>
   <i type="logical" name="LCHIMAG"> F  </i>
   <i type="logical" name="LGAUGE"> T  </i>
   <i type="int" name="MAGATOM">     0</i>
   <v name="MAGDIPOL">      0.00000000      0.00000000      0.00000000</v>
   <v name="AVECCONST">      0.00000000      0.00000000      0.00000000</v>
  </separator>
  <separator name="response functions" >
   <i type="logical" name="LRPA"> T  </i>
   <i type="logical" name="LTCTE"> F  </i>
   <i type="logical" name="LTETE"> F  </i>
   <i type="logical" name="L2ORDER"> F  </i>
   <i type="logical" name="LGWLF"> F  </i>
   <i name="ENCUTGW">    366.66666667</i>
   <i name="ENCUTGWSOFT">     -2.00000000</i>
   <i name="ENCUTLF">     -1.00000000</i>
   <i type="int" name="LMAXMP2">    -1</i>
   <i name="SCISSOR">      0.00000000</i>
   <i type="int" name="NOMEGA">     0</i>
   <i type="int" name="NOMEGAR">     0</i>
   <i type="int" name="NBANDSGW">    -1</i>
   <i type="int" name="NBANDSLF">    -1</i>
   <i type="int" name="NELM">     1</i>
   <i type="int" name="DIM">     3</i>
   <i type="int" name="ANTIRES">     0</i>
   <i type="logical" name="LUSEW"> F  </i>
   <i name="OMEGAMAX">    -30.00000000</i>
   <i name="OMEGATL">   -200.00000000</i>
   <i type="int" name="OMEGAGRID">     0</i>
   <i name="CSHIFT">     -0.10000000</i>
   <i type="logical" name="SELFENERGY"> F  </i>
   <i type="logical" name="LSPECTRAL"> F  </i>
   <i type="logical" name="ODDONLYGW"> F  </i>
   <i type="logical" name="EVENONLYGW"> F  </i>
   <i type="int" name="NKREDLFX">     1</i>
   <i type="int" name="NKREDLFY">     1</i>
   <i type="int" name="NKREDLFZ">     1</i>
   <i type="int" name="MAXMEM">  1024</i>
   <i type="int" name="TELESCOPE">     0</i>
  </separator>
 </parameters>
 <atominfo>
  <atoms>       4 </atoms>
  <types>       1 </types>
  <array name="atoms" >
   <dimension dim="1">ion</dimension>
   <field type="string">element</field>
   <field type="int">atomtype</field>
   <set>
    <rc><c>Al</c><c>   1</c></rc>
    <rc><c>Al</c><c>   1</c></rc>
    <rc><c>Al</c><c>   1</c></rc>
    <rc><c>Al</c><c>   1</c></rc>
   </set>
  </array>
  <array name="atomtypes" >
   <dimension dim="1">type</dimension>
   <field type="int">atomspertype</field>
   <field type="string">element</field>
   <field>mass</field>
   <field>valence</field>
   <field type="string">pseudopotential</field>
   <set>
    <rc><c>   4</c><c>Al</c><c>     26.98200000</c><c>      3.00000000</c><c> PAW_PBE Al 04Jan2001                   </c></rc>
   </set>
  </array>
 </atominfo>
 <structure name="initialpos" >
  <crystal>
   <varray name="basis" >
    <v>       4.04053900       0.00000000       0.00000000 </v>
    <v>       0.00000000       4.04053900       0.00000000 </v>
    <v>       0.00000000       0.00000000       3.97993100 </v>
   </varray>
   <i name="volume">     64.97617604 </i>
   <varray name="rec_basis" >
    <v>       0.24749173       0.00000000       0.00000000 </v>
    <v>       0.00000000       0.24749173       0.00000000 </v>
    <v>       0.00000000       0.00000000       0.25126064 </v>
   </varray>
  </crystal>
  <varray name="positions" >
   <v>       0.00000000       0.00000000       0.00000000 </v>
   <v>       0.50000000       0.50000000       0.00000000 </v>
[...]
      </set>
      <set comment="kpoint 718">
       <r>    1.7353    1.0000 </r>
       <r>    1.7353    1.0000 </r>
       <r>    3.4630    1.0000 </r>
       <r>    3.4630    1.0000 </r>
       <r>    4.3684    1.0000 </r>
       <r>    4.3684    1.0000 </r>
       <r>    6.0697    1.0000 </r>
       <r>    6.0697    1.0000 </r>
       <r>   16.1530    0.0000 </r>
       <r>   16.1530    0.0000 </r>
       <r>   16.9729    0.0000 </r>
       <r>   16.9729    0.0000 </r>
       <r>   17.5236    0.0000 </r>
       <r>   17.5236    0.0000 </r>
       <r>   18.9289    0.0000 </r>
       <r>   18.9289    0.0000 </r>
      </set>
      <set comment="kpoint 719">
       <r>    2.1069    1.0000 </r>
       <r>    2.1069    1.0000 </r>
       <r>    2.9743    1.0000 </r>
       <r>    2.9743    1.0000 </r>
       <r>    4.7248    1.0000 </r>
       <r>    4.7248    1.0000 </r>
       <r>    5.5790    1.0000 </r>
       <r>    5.5790    1.0000 </r>
       <r>   16.4973    0.0000 </r>
       <r>   16.4973    0.0000 </r>
       <r>   17.2147    0.0000 </r>
       <r>   17.2147    0.0000 </r>
       <r>   17.9630    0.0000 </r>
       <r>   17.9630    0.0000 </r>
       <r>   19.0700    0.0000 </r>
       <r>   19.0700    0.0000 </r>
      </set>
      <set comment="kpoint 720">
       <r>    2.5204    1.0000 </r>
       <r>    2.5204    1.0000 </r>
       <r>    2.5204    1.0000 </r>
       <r>    2.5204    1.0000 </r>
       <r>    5.1302    1.0000 </r>
       <r>    5.1302    1.0000 </r>
       <r>    5.1302    1.0000 </r>
       <r>    5.1302    1.0000 </r>
       <r>   16.8537    0.0000 </r>
       <r>   16.8537    0.0000 </r>
       <r>   16.8537    0.0000 </r>
       <r>   16.8537    0.0000 </r>
       <r>   18.7813    0.0000 </r>
       <r>   18.7813    0.0000 </r>
       <r>   18.7813    0.0000 </r>
       <r>   18.7813    0.0000 </r>
      </set>
      <set comment="kpoint 721">
       <r>    2.0633    1.0000 </r>
       <r>    2.0633    1.0000 </r>
       <r>    3.6768    1.0000 </r>
       <r>    3.6768    1.0000 </r>
       <r>    3.9409    1.0000 </r>
       <r>    3.9409    1.0000 </r>
       <r>    5.5369    1.0000 </r>
       <r>    5.5369    1.0000 </r>
       <r>   17.1018    0.0000 </r>
       <r>   17.1018    0.0000 </r>
       <r>   17.3496    0.0000 </r>
       <r>   17.3496    0.0000 </r>
       <r>   18.1329    0.0000 </r>
       <r>   18.1329    0.0000 </r>
       <r>   19.1582    0.0000 </r>
       <r>   19.1624    0.0000 </r>
      </set>
      <set comment="kpoint 722">
       <r>    2.4335    1.0000 </r>
       <r>    2.4335    1.0000 </r>
       <r>    3.2916    1.0000 </r>
       <r>    3.2916    1.0000 </r>
       <r>    4.1960    1.0000 </r>
       <r>    4.1960    1.0000 </r>
       <r>    5.0453    1.0000 </r>
       <r>    5.0453    1.0000 </r>
       <r>   17.5262    0.0000 </r>
       <r>   17.5262    0.0000 </r>
       <r>   18.1400    0.0000 </r>
       <r>   18.1400    0.0000 </r>
       <r>   18.2428    0.0000 </r>
       <r>   18.2428    0.0000 </r>
       <r>   19.3431    0.0000 </r>
       <r>   19.3431    0.0000 </r>
      </set>
      <set comment="kpoint 723">
       <r>    2.8447    1.0000 </r>
       <r>    2.8447    1.0000 </r>
       <r>    2.8447    1.0000 </r>
       <r>    2.8447    1.0000 </r>
       <r>    4.5965    1.0000 </r>
       <r>    4.5965    1.0000 </r>
       <r>    4.5965    1.0000 </r>
       <r>    4.5965    1.0000 </r>
       <r>   17.8588    0.0000 </r>
       <r>   17.8588    0.0000 </r>
       <r>   17.8588    0.0000 </r>
       <r>   17.8588    0.0000 </r>
       <r>   19.0695    0.0000 </r>
       <r>   19.0695    0.0000 </r>
       <r>   19.0695    0.0000 </r>
       <r>   19.0695    0.0000 </r>
      </set>
      <set comment="kpoint 724">
       <r>    2.8014    1.0000 </r>
       <r>    2.8014    1.0000 </r>
       <r>    3.5512    1.0000 </r>
       <r>    3.5512    1.0000 </r>
       <r>    3.8083    1.0000 </r>
       <r>    3.8083    1.0000 </r>
       <r>    4.5537    1.0000 </r>
       <r>    4.5537    1.0000 </r>
       <r>   18.4778    0.0000 </r>
       <r>   18.4778    0.0000 </r>
       <r>   18.5851    0.0000 </r>
       <r>   18.5851    0.0000 </r>
       <r>   18.7982    0.0000 </r>
       <r>   18.7982    0.0000 </r>
       <r>   19.5999    0.0000 </r>
       <r>   19.6017    0.0000 </r>
      </set>
      <set comment="kpoint 725">
       <r>    3.2058    1.0000 </r>
       <r>    3.2058    1.0000 </r>
       <r>    3.2058    1.0000 </r>
       <r>    3.2058    1.0000 </r>
       <r>    4.1096    1.0000 </r>
       <r>    4.1096    1.0000 </r>
       <r>    4.1096    1.0000 </r>
       <r>    4.1096    1.0000 </r>
       <r>   18.8057    0.0000 </r>
       <r>   18.8057    0.0000 </r>
       <r>   18.8057    0.0000 </r>
       <r>   18.8057    0.0000 </r>
       <r>   19.3875    0.0000 </r>
       <r>   19.3876    0.0000 </r>
       <r>   19.3876    0.0000 </r>
       <r>   19.3878    0.0000 </r>
      </set>
      <set comment="kpoint 726">
       <r>    3.5093    1.0000 </r>
       <r>    3.5093    1.0000 </r>
       <r>    3.5093    1.0000 </r>
       <r>    3.5093    1.0000 </r>
       <r>    3.7641    1.0000 </r>
       <r>    3.7641    1.0000 </r>
       <r>    3.7641    1.0000 </r>
       <r>    3.7641    1.0000 </r>
       <r>   19.5268    0.0000 </r>
       <r>   19.5268    0.0000 </r>
       <r>   19.5272    0.0000 </r>
       <r>   19.5299    0.0000 </r>
       <r>   19.5556    0.0000 </r>
       <r>   19.5556    0.0000 </r>
       <r>   19.5559    0.0000 </r>
       <r>   19.5609    0.0000 </r>
      </set>
     </set>
    </set>
   </array>
  </eigenvalues>
  <separator name="orbital magnetization" >
   <v name="MAGDIPOLOUT">      0.00000000      0.00000000      0.00000000</v>
  </separator>
  <dos>
   <i name="efermi">      8.17992374 </i>
   <total>
    <array>
     <dimension dim="1">gridpoints</dimension>
     <dimension dim="2">spin</dimension>
     <field>energy</field>
     <field>total</field>
     <field>integrated</field>
     <set>
      <set comment="spin 1">
       <r>  -4.2278   0.0000   0.0000 </r>
       <r>  -4.1435   0.0000   0.0000 </r>
       <r>  -4.0593   0.0000   0.0000 </r>
       <r>  -3.9750   0.0000   0.0000 </r>
       <r>  -3.8908   0.0000   0.0000 </r>
       <r>  -3.8065   0.0000   0.0000 </r>
       <r>  -3.7223   0.0000   0.0000 </r>
       <r>  -3.6380   0.0000   0.0000 </r>
       <r>  -3.5538   0.0000   0.0000 </r>
       <r>  -3.4695   0.0000   0.0000 </r>
       <r>  -3.3853   0.0000   0.0000 </r>
       <r>  -3.3010   0.0001   0.0000 </r>
       <r>  -3.2168   0.0003   0.0000 </r>
       <r>  -3.1325  -0.0032  -0.0002 </r>
       <r>  -3.0483   0.0252   0.0019 </r>
       <r>  -2.9640   0.1171   0.0118 </r>
       <r>  -2.8798   0.1773   0.0267 </r>
       <r>  -2.7956   0.2302   0.0461 </r>
       <r>  -2.7113   0.2435   0.0666 </r>
       <r>  -2.6271   0.3178   0.0934 </r>
       <r>  -2.5428   0.2882   0.1177 </r>
       <r>  -2.4586   0.3639   0.1483 </r>
       <r>  -2.3743   0.3842   0.1807 </r>
       <r>  -2.2901   0.3657   0.2115 </r>
       <r>  -2.2058   0.4178   0.2467 </r>
       <r>  -2.1216   0.4689   0.2862 </r>
       <r>  -2.0373   0.4603   0.3250 </r>
       <r>  -1.9531   0.3888   0.3577 </r>
       <r>  -1.8688   0.5868   0.4072 </r>
       <r>  -1.7846   0.5271   0.4516 </r>
       <r>  -1.7003   0.4646   0.4907 </r>
       <r>  -1.6161   0.5309   0.5354 </r>
       <r>  -1.5318   0.6379   0.5892 </r>
       <r>  -1.4476   0.5426   0.6349 </r>
       <r>  -1.3634   0.6248   0.6875 </r>
       <r>  -1.2791   0.5838   0.7367 </r>
       <r>  -1.1949   0.5689   0.7846 </r>
       <r>  -1.1106   0.6692   0.8410 </r>
       <r>  -1.0264   0.7913   0.9077 </r>
       <r>  -0.9421   0.5894   0.9573 </r>
       <r>  -0.8579   0.5320   1.0022 </r>
       <r>  -0.7736   0.8159   1.0709 </r>
       <r>  -0.6894   0.7356   1.1329 </r>
       <r>  -0.6051   0.7486   1.1959 </r>
       <r>  -0.5209   0.6618   1.2517 </r>
       <r>  -0.4366   0.7850   1.3178 </r>
       <r>  -0.3524   0.7168   1.3782 </r>
       <r>  -0.2681   0.7711   1.4432 </r>
       <r>  -0.1839   0.8070   1.5112 </r>
       <r>  -0.0996   0.8361   1.5816 </r>
       <r>  -0.0154   0.8459   1.6529 </r>
       <r>   0.0689   0.8101   1.7211 </r>
       <r>   0.1531   0.6742   1.7779 </r>
       <r>   0.2373   0.8305   1.8479 </r>
       <r>   0.3216   1.0189   1.9337 </r>
       <r>   0.4058   0.9785   2.0161 </r>
       <r>   0.4901   0.7444   2.0789 </r>
       <r>   0.5743   0.7997   2.1462 </r>
       <r>   0.6586   0.9459   2.2259 </r>
       <r>   0.7428   0.8986   2.3016 </r>
       <r>   0.8271   1.0213   2.3877 </r>
       <r>   0.9113   0.8627   2.4604 </r>
       <r>   0.9956   0.9029   2.5364 </r>
       <r>   1.0798   1.0951   2.6287 </r>
       <r>   1.1641   0.9932   2.7124 </r>
       <r>   1.2483   0.7787   2.7780 </r>
       <r>   1.3326   1.0102   2.8631 </r>
       <r>   1.4168   1.0196   2.9490 </r>
       <r>   1.5011   0.9933   3.0326 </r>
       <r>   1.5853   1.1162   3.1267 </r>
       <r>   1.6695   1.1632   3.2247 </r>
       <r>   1.7538   0.8874   3.2994 </r>
       <r>   1.8380   0.9429   3.3789 </r>
       <r>   1.9223   1.0402   3.4665 </r>
       <r>   2.0065   1.0558   3.5555 </r>
       <r>   2.0908   1.2098   3.6574 </r>
       <r>   2.1750   1.1914   3.7577 </r>
       <r>   2.2593   1.0389   3.8453 </r>
       <r>   2.3435   0.9603   3.9262 </r>
       <r>   2.4278   1.1272   4.0211 </r>
       <r>   2.5120   1.2788   4.1289 </r>
       <r>   2.5963   1.0789   4.2198 </r>
       <r>   2.6805   1.0581   4.3089 </r>
       <r>   2.7648   1.1594   4.4066 </r>
       <r>   2.8490   1.1287   4.5017 </r>
       <r>   2.9333   1.2985   4.6111 </r>
       <r>   3.0175   1.3340   4.7235 </r>
       <r>   3.1017   1.1144   4.8173 </r>
       <r>   3.1860   1.1094   4.9108 </r>
       <r>   3.2702   1.1614   5.0087 </r>
       <r>   3.3545   1.1540   5.1059 </r>
       <r>   3.4387   1.2848   5.2141 </r>
       <r>   3.5230   1.4325   5.3348 </r>
       <r>   3.6072   1.3087   5.4451 </r>
       <r>   3.6915   1.2701   5.5521 </r>
       <r>   3.7757   1.1682   5.6505 </r>
       <r>   3.8600   1.2065   5.7521 </r>
       <r>   3.9442   1.2599   5.8583 </r>
       <r>   4.0285   1.1629   5.9562 </r>
       <r>   4.1127   1.4467   6.0781 </r>
       <r>   4.1970   1.3981   6.1959 </r>
       <r>   4.2812   1.2637   6.3024 </r>
       <r>   4.3655   1.3634   6.4172 </r>
       <r>   4.4497   1.3183   6.5283 </r>
       <r>   4.5339   1.1773   6.6275 </r>
       <r>   4.6182   1.5432   6.7575 </r>
       <r>   4.7024   1.4425   6.8790 </r>
       <r>   4.7867   1.4164   6.9983 </r>
       <r>   4.8709   1.3365   7.1109 </r>
       <r>   4.9552   1.1792   7.2103 </r>
       <r>   5.0394   1.3988   7.3281 </r>
       <r>   5.1237   1.8584   7.4847 </r>
       <r>   5.2079   1.6152   7.6208 </r>
       <r>   5.2922   1.3474   7.7343 </r>
       <r>   5.3764   1.4445   7.8560 </r>
       <r>   5.4607   1.3276   7.9678 </r>
       <r>   5.5449   1.6406   8.1060 </r>
       <r>   5.6292   1.6741   8.2471 </r>
       <r>   5.7134   1.4552   8.3697 </r>
       <r>   5.7977   1.2345   8.4737 </r>
       <r>   5.8819   1.5790   8.6067 </r>
       <r>   5.9661   1.5194   8.7347 </r>
       <r>   6.0504   1.3298   8.8467 </r>
       <r>   6.1346   1.3458   8.9601 </r>
       <r>   6.2189   1.5238   9.0885 </r>
       <r>   6.3031   1.3305   9.2006 </r>
       <r>   6.3874   1.2824   9.3086 </r>
       <r>   6.4716   1.3831   9.4251 </r>
       <r>   6.5559   1.6251   9.5620 </r>
       <r>   6.6401   1.3920   9.6793 </r>
       <r>   6.7244   1.2865   9.7877 </r>
       <r>   6.8086   1.3576   9.9021 </r>
       <r>   6.8929   1.5674  10.0341 </r>
       <r>   6.9771   1.4052  10.1525 </r>
       <r>   7.0614   1.6584  10.2922 </r>
       <r>   7.1456   1.5592  10.4236 </r>
       <r>   7.2299   1.5985  10.5582 </r>
       <r>   7.3141   1.6109  10.6940 </r>
       <r>   7.3983   1.4661  10.8175 </r>
       <r>   7.4826   1.5987  10.9522 </r>
       <r>   7.5668   1.4078  11.0708 </r>
       <r>   7.6511   1.4343  11.1916 </r>
       <r>   7.7353   1.6502  11.3306 </r>
       <r>   7.8196   1.5224  11.4589 </r>
       <r>   7.9038   1.4703  11.5828 </r>
       <r>   7.9881   1.4712  11.7067 </r>
       <r>   8.0723   1.4181  11.8262 </r>
       <r>   8.1566   1.5962  11.9606 </r>
       <r>   8.2408   1.7126  12.1049 </r>
       <r>   8.3251   1.7188  12.2497 </r>
       <r>   8.4093   1.8351  12.4043 </r>
       <r>   8.4936   1.6795  12.5458 </r>
       <r>   8.5778   1.4332  12.6666 </r>
       <r>   8.6621   1.4792  12.7912 </r>
       <r>   8.7463   1.6343  12.9289 </r>
       <r>   8.8305   1.5846  13.0624 </r>
       <r>   8.9148   1.8138  13.2152 </r>
       <r>   8.9990   1.7903  13.3660 </r>
       <r>   9.0833   2.0423  13.5381 </r>
       <r>   9.1675   1.6647  13.6783 </r>
       <r>   9.2518   1.4137  13.7974 </r>
       <r>   9.3360   1.5470  13.9277 </r>
       <r>   9.4203   1.5626  14.0594 </r>
       <r>   9.5045   1.6851  14.2014 </r>
       <r>   9.5888   1.5053  14.3282 </r>
       <r>   9.6730   1.7367  14.4745 </r>
       <r>   9.7573   2.0384  14.6462 </r>
       <r>   9.8415   1.8763  14.8043 </r>
       <r>   9.9258   1.8280  14.9583 </r>
       <r>  10.0100   1.5857  15.0919 </r>
       <r>  10.0943   1.4935  15.2177 </r>
       <r>  10.1785   1.6943  15.3604 </r>
       <r>  10.2627   1.9404  15.5239 </r>
       <r>  10.3470   1.8391  15.6788 </r>
       <r>  10.4312   1.6554  15.8183 </r>
       <r>  10.5155   1.7032  15.9618 </r>
       <r>  10.5997   1.9371  16.1250 </r>
       <r>  10.6840   1.9405  16.2885 </r>
       <r>  10.7682   1.7487  16.4358 </r>
       <r>  10.8525   1.6991  16.5790 </r>
       <r>  10.9367   1.7270  16.7244 </r>
       <r>  11.0210   1.8502  16.8803 </r>
       <r>  11.1052   1.9563  17.0451 </r>
       <r>  11.1895   1.8882  17.2042 </r>
       <r>  11.2737   1.7741  17.3537 </r>
       <r>  11.3580   2.0599  17.5272 </r>
       <r>  11.4422   1.8903  17.6865 </r>
       <r>  11.5265   1.7525  17.8341 </r>
       <r>  11.6107   1.7488  17.9814 </r>
       <r>  11.6949   1.8322  18.1358 </r>
       <r>  11.7792   1.9279  18.2982 </r>
       <r>  11.8634   1.9036  18.4586 </r>
       <r>  11.9477   2.0383  18.6303 </r>
       <r>  12.0319   2.0267  18.8010 </r>
       <r>  12.1162   1.9036  18.9614 </r>
       <r>  12.2004   1.9740  19.1277 </r>
       <r>  12.2847   1.8803  19.2861 </r>
       <r>  12.3689   1.9166  19.4476 </r>
       <r>  12.4532   2.1053  19.6250 </r>
       <r>  12.5374   2.0281  19.7958 </r>
       <r>  12.6217   1.8699  19.9534 </r>
       <r>  12.7059   1.9683  20.1192 </r>
       <r>  12.7902   1.7655  20.2679 </r>
       <r>  12.8744   2.1372  20.4480 </r>
       <r>  12.9587   2.0822  20.6234 </r>
       <r>  13.0429   2.1613  20.8055 </r>
       <r>  13.1271   2.1798  20.9891 </r>
       <r>  13.2114   2.1027  21.1663 </r>
       <r>  13.2956   2.1444  21.3469 </r>
       <r>  13.3799   1.9244  21.5091 </r>
       <r>  13.4641   2.1663  21.6916 </r>
       <r>  13.5484   1.9340  21.8545 </r>
       <r>  13.6326   2.0975  22.0312 </r>
       <r>  13.7169   2.3505  22.2292 </r>
       <r>  13.8011   2.4006  22.4315 </r>
       <r>  13.8854   2.5467  22.6460 </r>
       <r>  13.9696   2.1601  22.8280 </r>
       <r>  14.0539   2.0381  22.9997 </r>
       <r>  14.1381   2.3674  23.1992 </r>
       <r>  14.2224   2.3105  23.3938 </r>
       <r>  14.3066   2.4181  23.5975 </r>
       <r>  14.3909   2.1857  23.7817 </r>
       <r>  14.4751   2.3714  23.9814 </r>
       <r>  14.5593   2.2528  24.1712 </r>
       <r>  14.6436   2.1160  24.3495 </r>
       <r>  14.7278   1.9993  24.5179 </r>
       <r>  14.8121   2.2996  24.7117 </r>
       <r>  14.8963   2.2682  24.9028 </r>
       <r>  14.9806   2.1304  25.0822 </r>
       <r>  15.0648   2.1637  25.2645 </r>
       <r>  15.1491   2.0249  25.4351 </r>
       <r>  15.2333   2.1962  25.6201 </r>
       <r>  15.3176   1.9830  25.7872 </r>
       <r>  15.4018   2.0693  25.9615 </r>
       <r>  15.4861   2.2721  26.1530 </r>
       <r>  15.5703   2.1210  26.3316 </r>
       <r>  15.6546   2.1157  26.5099 </r>
       <r>  15.7388   2.2199  26.6969 </r>
       <r>  15.8231   2.1707  26.8798 </r>
       <r>  15.9073   2.1395  27.0600 </r>
       <r>  15.9915   1.8882  27.2191 </r>
       <r>  16.0758   1.9112  27.3801 </r>
       <r>  16.1600   2.1225  27.5589 </r>
       <r>  16.2443   2.2276  27.7466 </r>
       <r>  16.3285   1.9900  27.9142 </r>
       <r>  16.4128   1.9114  28.0753 </r>
       <r>  16.4970   2.4105  28.2783 </r>
       <r>  16.5813   2.1574  28.4601 </r>
       <r>  16.6655   2.0945  28.6366 </r>
       <r>  16.7498   1.7316  28.7824 </r>
       <r>  16.8340   1.5734  28.9150 </r>
       <r>  16.9183   2.2429  29.1040 </r>
       <r>  17.0025   2.1211  29.2827 </r>
       <r>  17.0868   2.1107  29.4605 </r>
       <r>  17.1710   1.8624  29.6174 </r>
       <r>  17.2553   1.6214  29.7540 </r>
       <r>  17.3395   1.7426  29.9008 </r>
       <r>  17.4237   1.7677  30.0497 </r>
       <r>  17.5080   1.6523  30.1889 </r>
       <r>  17.5922   1.7210  30.3339 </r>
       <r>  17.6765   1.5536  30.4648 </r>
       <r>  17.7607   1.2984  30.5742 </r>
       <r>  17.8450   1.4522  30.6965 </r>
       <r>  17.9292   1.4866  30.8218 </r>
       <r>  18.0135   1.2434  30.9265 </r>
       <r>  18.0977   1.1056  31.0196 </r>
       <r>  18.1820   1.2336  31.1236 </r>
       <r>  18.2662   1.0862  31.2151 </r>
       <r>  18.3505   1.0109  31.3002 </r>
       <r>  18.4347   0.8412  31.3711 </r>
       <r>  18.5190   1.0414  31.4588 </r>
       <r>  18.6032   0.9824  31.5416 </r>
       <r>  18.6875   0.8977  31.6172 </r>
       <r>  18.7717   0.7443  31.6799 </r>
       <r>  18.8559   0.6598  31.7355 </r>
       <r>  18.9402   0.6031  31.7863 </r>
       <r>  19.0244   0.6230  31.8388 </r>
       <r>  19.1087   0.4799  31.8793 </r>
       <r>  19.1929   0.3315  31.9072 </r>
       <r>  19.2772   0.2162  31.9254 </r>
       <r>  19.3614   0.2363  31.9453 </r>
       <r>  19.4457   0.1752  31.9601 </r>
       <r>  19.5299   0.1626  31.9738 </r>
       <r>  19.6142   0.1597  31.9872 </r>
       <r>  19.6984   0.0717  31.9933 </r>
       <r>  19.7827   0.0310  31.9959 </r>
       <r>  19.8669   0.0113  31.9968 </r>
       <r>  19.9512   0.0356  31.9998 </r>
       <r>  20.0354   0.0032  32.0001 </r>
       <r>  20.1197  -0.0012  32.0000 </r>
       <r>  20.2039   0.0002  32.0000 </r>
       <r>  20.2881   0.0000  32.0000 </r>
       <r>  20.3724   0.0000  32.0000 </r>
       <r>  20.4566   0.0000  32.0000 </r>
       <r>  20.5409   0.0000  32.0000 </r>
       <r>  20.6251   0.0000  32.0000 </r>
       <r>  20.7094   0.0000  32.0000 </r>
       <r>  20.7936   0.0000  32.0000 </r>
       <r>  20.8779   0.0000  32.0000 </r>
       <r>  20.9621   0.0000  32.0000 </r>
       <r>  21.0464   0.0000  32.0000 </r>
      </set>
     </set>
    </array>
   </total>
  </dos>
 </calculation>
 <structure name="finalpos" >
  <crystal>
   <varray name="basis" >
    <v>       4.04053900       0.00000000       0.00000000 </v>
    <v>       0.00000000       4.04053900       0.00000000 </v>
    <v>       0.00000000       0.00000000       3.97993100 </v>
   </varray>
   <i name="volume">     64.97617604 </i>
   <varray name="rec_basis" >
    <v>       0.24749173       0.00000000       0.00000000 </v>
    <v>       0.00000000       0.24749173       0.00000000 </v>
    <v>       0.00000000       0.00000000       0.25126064 </v>
   </varray>
  </crystal>
  <varray name="positions" >
   <v>       0.00000000       0.00000000       0.00000000 </v>
   <v>       0.50000000       0.50000000       0.00000000 </v>
   <v>       0.50000000       0.00000000       0.50000000 </v>
   <v>       0.00000000       0.50000000       0.50000000 </v>
  </varray>
 </structure>
</modeling>
